REMARK SMILES O=C1Nc2ccccc2C1=O
REMARK SMILES IDX 1 1 2 2 3 3 4 4 5 5 6 6 7 7 8 8 9 9 10 10 11 11
REMARK H PARENT 3 12
ROOT
ATOM      1  O   UNL     1      12.636  38.260  27.523  1.00  0.00    -0.265 OA
ATOM      2  C   UNL     1      12.622  37.103  27.167  1.00  0.00     0.296 C 
ATOM      3  N   UNL     1      13.684  36.326  26.748  1.00  0.00    -0.318 N 
ATOM      4  C   UNL     1      13.263  35.041  26.420  1.00  0.00     0.053 A 
ATOM      5  C   UNL     1      14.041  33.998  25.966  1.00  0.00     0.027 A 
ATOM      6  C   UNL     1      13.396  32.784  25.698  1.00  0.00     0.002 A 
ATOM      7  C   UNL     1      12.005  32.638  25.887  1.00  0.00     0.001 A 
ATOM      8  C   UNL     1      11.231  33.705  26.348  1.00  0.00     0.014 A 
ATOM      9  C   UNL     1      11.890  34.890  26.605  1.00  0.00     0.051 A 
ATOM     10  C   UNL     1      11.378  36.173  27.089  1.00  0.00     0.252 C 
ATOM     11  O   UNL     1      10.233  36.448  27.366  1.00  0.00    -0.283 OA
ATOM     12  H   UNL     1      14.630  36.675  26.696  1.00  0.00     0.170 HD
ENDROOT
TORSDOF 0
