ATOM      1  O   UNL     1      25.108  53.155  44.120  1.00  0.00    -0.283 OA
ATOM      2  O   UNL     1      25.484  50.931  45.898  1.00  0.00    -0.265 OA
ATOM      3  N   UNL     1      26.501  52.593  47.246  1.00  0.00    -0.318 N 
ATOM      4  C   UNL     1      26.224  54.403  45.857  1.00  0.00     0.051 A 
ATOM      5  C   UNL     1      26.720  53.962  47.080  1.00  0.00     0.053 A 
ATOM      6  C   UNL     1      25.647  53.234  45.197  1.00  0.00     0.252 C 
ATOM      7  C   UNL     1      25.851  52.058  46.148  1.00  0.00     0.296 C 
ATOM      8  C   UNL     1      26.313  55.715  45.447  1.00  0.00     0.014 A 
ATOM      9  C   UNL     1      27.336  54.830  47.956  1.00  0.00     0.027 A 
ATOM     10  C   UNL     1      26.935  56.606  46.324  1.00  0.00     0.001 A 
ATOM     11  C   UNL     1      27.441  56.169  47.567  1.00  0.00     0.002 A 
ATOM     12  H   UNL     1      26.787  52.075  48.070  1.00  0.00     0.170 HD
