REMARK  Top Vina pose 1, affinity -5.963 kcal/mol
ATOM      1  N   UNL     1      -2.863 -15.099 -19.165  1.00  0.00    -0.287 N 

ATOM      2  C   UNL     1      -2.126 -15.617 -18.215  1.00  0.00     0.270 C 

ATOM      3  N   UNL     1      -1.676 -16.838 -18.346  1.00  0.00    -0.287 N 

ATOM      4  H   UNL     1      -3.147 -15.601 -20.013  1.00  0.00     0.302 HD

ATOM      5  H   UNL     1      -3.238 -14.157 -19.112  1.00  0.00     0.302 HD

ATOM      6  H   UNL     1      -1.936 -17.405 -19.150  1.00  0.00     0.302 HD

ATOM      7  H   UNL     1      -1.098 -17.280 -17.650  1.00  0.00     0.302 HD

ATOM      8  C   UNL     1      -1.838 -14.857 -16.988  1.00  0.00     0.063 A 

ATOM      9  C   UNL     1      -2.455 -13.648 -16.745  1.00  0.00     0.016 A 

ATOM     10  C   UNL     1      -0.954 -15.348 -16.047  1.00  0.00     0.016 A 

ATOM     11  C   UNL     1      -2.207 -12.968 -15.567  1.00  0.00     0.001 A 

ATOM     12  C   UNL     1      -0.705 -14.655 -14.882  1.00  0.00     0.001 A 

ATOM     13  C   UNL     1      -1.348 -13.488 -14.631  1.00  0.00     0.000 A 

END
