MODEL 1
REMARK VINA RESULT:    -5.659      0.000      0.000
REMARK INTER + INTRA:          -6.068
REMARK INTER:                  -5.990
REMARK INTRA:                  -0.078
REMARK UNBOUND:                -0.078
REMARK SMILES NC(=[NH2+])c1ccccc1
REMARK SMILES IDX 3 1 2 2 1 3 4 8 5 9 9 10 6 11 8 12 7 13
REMARK H PARENT 3 4 3 5 1 6 1 7
ROOT
ATOM      1  N   UNL     1      -3.044 -15.114 -19.151  1.00  0.00    -0.287 N 
ATOM      2  C   UNL     1      -2.260 -15.631 -18.239  1.00  0.00     0.270 C 
ATOM      3  N   UNL     1      -1.830 -16.856 -18.383  1.00  0.00    -0.287 N 
ATOM      4  H   UNL     1      -3.378 -15.620 -19.978  1.00  0.00     0.302 HD
ATOM      5  H   UNL     1      -3.406 -14.167 -19.087  1.00  0.00     0.302 HD
ATOM      6  H   UNL     1      -2.139 -17.428 -19.166  1.00  0.00     0.302 HD
ATOM      7  H   UNL     1      -1.219 -17.298 -17.715  1.00  0.00     0.302 HD
ENDROOT
BRANCH   2   8
ATOM      8  C   UNL     1      -1.898 -14.862 -17.037  1.00  0.00     0.063 A 
ATOM      9  C   UNL     1      -2.339 -13.567 -16.868  1.00  0.00     0.016 A 
ATOM     10  C   UNL     1      -1.123 -15.431 -16.045  1.00  0.00     0.016 A 
ATOM     11  C   UNL     1      -2.027 -12.874 -15.712  1.00  0.00     0.001 A 
ATOM     12  C   UNL     1      -0.807 -14.726 -14.903  1.00  0.00     0.001 A 
ATOM     13  C   UNL     1      -1.279 -13.468 -14.725  1.00  0.00     0.000 A 
ENDBRANCH   2   8
TORSDOF 1
ENDMDL
MODEL 2
REMARK VINA RESULT:    -5.644      0.191      1.905
REMARK INTER + INTRA:          -6.052
REMARK INTER:                  -5.974
REMARK INTRA:                  -0.078
REMARK UNBOUND:                -0.078
REMARK SMILES NC(=[NH2+])c1ccccc1
REMARK SMILES IDX 3 1 2 2 1 3 4 8 5 9 9 10 6 11 8 12 7 13
REMARK H PARENT 3 4 3 5 1 6 1 7
ROOT
ATOM      1  N   UNL     1      -1.870 -16.884 -18.452  1.00  0.00    -0.287 N 
ATOM      2  C   UNL     1      -2.165 -15.612 -18.361  1.00  0.00     0.270 C 
ATOM      3  N   UNL     1      -2.665 -14.993 -19.398  1.00  0.00    -0.287 N 
ATOM      4  H   UNL     1      -1.977 -17.441 -19.307  1.00  0.00     0.302 HD
ATOM      5  H   UNL     1      -1.479 -17.411 -17.677  1.00  0.00     0.302 HD
ATOM      6  H   UNL     1      -2.777 -15.475 -20.288  1.00  0.00     0.302 HD
ATOM      7  H   UNL     1      -2.917 -14.018 -19.378  1.00  0.00     0.302 HD
ENDROOT
BRANCH   2   8
ATOM      8  C   UNL     1      -1.898 -14.867 -17.120  1.00  0.00     0.063 A 
ATOM      9  C   UNL     1      -1.208 -15.451 -16.080  1.00  0.00     0.016 A 
ATOM     10  C   UNL     1      -2.319 -13.558 -16.981  1.00  0.00     0.016 A 
ATOM     11  C   UNL     1      -0.927 -14.722 -14.939  1.00  0.00     0.001 A 
ATOM     12  C   UNL     1      -2.044 -12.845 -15.833  1.00  0.00     0.001 A 
ATOM     13  C   UNL     1      -1.329 -13.414 -14.831  1.00  0.00     0.000 A 
ENDBRANCH   2   8
TORSDOF 1
ENDMDL
MODEL 3
REMARK VINA RESULT:    -5.636      0.056      1.579
REMARK INTER + INTRA:          -6.044
REMARK INTER:                  -5.965
REMARK INTRA:                  -0.078
REMARK UNBOUND:                -0.078
REMARK SMILES NC(=[NH2+])c1ccccc1
REMARK SMILES IDX 3 1 2 2 1 3 4 8 5 9 9 10 6 11 8 12 7 13
REMARK H PARENT 3 4 3 5 1 6 1 7
ROOT
ATOM      1  N   UNL     1      -3.038 -15.110 -19.148  1.00  0.00    -0.287 N 
ATOM      2  C   UNL     1      -2.264 -15.639 -18.234  1.00  0.00     0.270 C 
ATOM      3  N   UNL     1      -1.838 -16.866 -18.386  1.00  0.00    -0.287 N 
ATOM      4  H   UNL     1      -3.369 -15.608 -19.982  1.00  0.00     0.302 HD
ATOM      5  H   UNL     1      -3.396 -14.163 -19.079  1.00  0.00     0.302 HD
ATOM      6  H   UNL     1      -2.144 -17.429 -19.176  1.00  0.00     0.302 HD
ATOM      7  H   UNL     1      -1.234 -17.316 -17.717  1.00  0.00     0.302 HD
ENDROOT
BRANCH   2   8
ATOM      8  C   UNL     1      -1.907 -14.882 -17.023  1.00  0.00     0.063 A 
ATOM      9  C   UNL     1      -1.130 -15.452 -16.038  1.00  0.00     0.016 A 
ATOM     10  C   UNL     1      -2.331 -13.577 -16.859  1.00  0.00     0.016 A 
ATOM     11  C   UNL     1      -0.768 -14.712 -14.927  1.00  0.00     0.001 A 
ATOM     12  C   UNL     1      -1.974 -12.854 -15.741  1.00  0.00     0.001 A 
ATOM     13  C   UNL     1      -1.175 -13.407 -14.796  1.00  0.00     0.000 A 
ENDBRANCH   2   8
TORSDOF 1
ENDMDL
MODEL 4
REMARK VINA RESULT:    -4.935      2.709      3.647
REMARK INTER + INTRA:          -5.302
REMARK INTER:                  -5.233
REMARK INTRA:                  -0.069
REMARK UNBOUND:                -0.078
REMARK SMILES NC(=[NH2+])c1ccccc1
REMARK SMILES IDX 3 1 2 2 1 3 4 8 5 9 9 10 6 11 8 12 7 13
REMARK H PARENT 3 4 3 5 1 6 1 7
ROOT
ATOM      1  N   UNL     1      -1.400 -15.322 -13.532  1.00  0.00    -0.287 N 
ATOM      2  C   UNL     1      -0.860 -14.672 -14.531  1.00  0.00     0.270 C 
ATOM      3  N   UNL     1       0.081 -13.797 -14.292  1.00  0.00    -0.287 N 
ATOM      4  H   UNL     1      -1.156 -15.173 -12.547  1.00  0.00     0.302 HD
ATOM      5  H   UNL     1      -2.135 -16.011 -13.663  1.00  0.00     0.302 HD
ATOM      6  H   UNL     1       0.360 -13.579 -13.338  1.00  0.00     0.302 HD
ATOM      7  H   UNL     1       0.536 -13.276 -15.025  1.00  0.00     0.302 HD
ENDROOT
BRANCH   2   8
ATOM      8  C   UNL     1      -1.332 -14.884 -15.909  1.00  0.00     0.063 A 
ATOM      9  C   UNL     1      -2.090 -13.929 -16.551  1.00  0.00     0.016 A 
ATOM     10  C   UNL     1      -1.010 -16.041 -16.592  1.00  0.00     0.016 A 
ATOM     11  C   UNL     1      -2.487 -14.125 -17.861  1.00  0.00     0.001 A 
ATOM     12  C   UNL     1      -1.423 -16.231 -17.894  1.00  0.00     0.001 A 
ATOM     13  C   UNL     1      -2.132 -15.269 -18.533  1.00  0.00     0.000 A 
ENDBRANCH   2   8
TORSDOF 1
ENDMDL
MODEL 5
REMARK VINA RESULT:    -4.437      3.199      4.304
REMARK INTER + INTRA:          -4.775
REMARK INTER:                  -4.706
REMARK INTRA:                  -0.069
REMARK UNBOUND:                -0.078
REMARK SMILES NC(=[NH2+])c1ccccc1
REMARK SMILES IDX 3 1 2 2 1 3 4 8 5 9 9 10 6 11 8 12 7 13
REMARK H PARENT 3 4 3 5 1 6 1 7
ROOT
ATOM      1  N   UNL     1       0.641 -12.663 -13.898  1.00  0.00    -0.287 N 
ATOM      2  C   UNL     1      -0.613 -13.016 -14.022  1.00  0.00     0.270 C 
ATOM      3  N   UNL     1      -1.450 -12.764 -13.050  1.00  0.00    -0.287 N 
ATOM      4  H   UNL     1       1.035 -12.218 -13.062  1.00  0.00     0.302 HD
ATOM      5  H   UNL     1       1.331 -12.836 -14.622  1.00  0.00     0.302 HD
ATOM      6  H   UNL     1      -1.127 -12.346 -12.180  1.00  0.00     0.302 HD
ATOM      7  H   UNL     1      -2.426 -13.008 -13.099  1.00  0.00     0.302 HD
ENDROOT
BRANCH   2   8
ATOM      8  C   UNL     1      -1.076 -13.731 -15.223  1.00  0.00     0.063 A 
ATOM      9  C   UNL     1      -0.821 -15.075 -15.387  1.00  0.00     0.016 A 
ATOM     10  C   UNL     1      -1.792 -13.070 -16.203  1.00  0.00     0.016 A 
ATOM     11  C   UNL     1      -1.302 -15.741 -16.500  1.00  0.00     0.001 A 
ATOM     12  C   UNL     1      -2.256 -13.741 -17.314  1.00  0.00     0.001 A 
ATOM     13  C   UNL     1      -2.037 -15.072 -17.448  1.00  0.00     0.000 A 
ENDBRANCH   2   8
TORSDOF 1
ENDMDL
MODEL 6
REMARK VINA RESULT:    -4.328      2.415      3.496
REMARK INTER + INTRA:          -4.659
REMARK INTER:                  -4.581
REMARK INTRA:                  -0.078
REMARK UNBOUND:                -0.078
REMARK SMILES NC(=[NH2+])c1ccccc1
REMARK SMILES IDX 3 1 2 2 1 3 4 8 5 9 9 10 6 11 8 12 7 13
REMARK H PARENT 3 4 3 5 1 6 1 7
ROOT
ATOM      1  N   UNL     1      -2.642 -11.256 -17.863  1.00  0.00    -0.287 N 
ATOM      2  C   UNL     1      -2.188 -11.675 -16.709  1.00  0.00     0.270 C 
ATOM      3  N   UNL     1      -2.017 -10.817 -15.738  1.00  0.00    -0.287 N 
ATOM      4  H   UNL     1      -2.851 -10.276 -18.080  1.00  0.00     0.302 HD
ATOM      5  H   UNL     1      -2.793 -11.881 -18.650  1.00  0.00     0.302 HD
ATOM      6  H   UNL     1      -2.181  -9.823 -15.886  1.00  0.00     0.302 HD
ATOM      7  H   UNL     1      -1.679 -11.088 -14.829  1.00  0.00     0.302 HD
ENDROOT
BRANCH   2   8
ATOM      8  C   UNL     1      -1.831 -13.089 -16.511  1.00  0.00     0.063 A 
ATOM      9  C   UNL     1      -1.182 -13.499 -15.366  1.00  0.00     0.016 A 
ATOM     10  C   UNL     1      -2.154 -14.036 -17.463  1.00  0.00     0.016 A 
ATOM     11  C   UNL     1      -0.893 -14.838 -15.176  1.00  0.00     0.001 A 
ATOM     12  C   UNL     1      -1.850 -15.367 -17.268  1.00  0.00     0.001 A 
ATOM     13  C   UNL     1      -1.249 -15.769 -16.121  1.00  0.00     0.000 A 
ENDBRANCH   2   8
TORSDOF 1
ENDMDL
MODEL 7
REMARK VINA RESULT:    -4.301      3.161      3.923
REMARK INTER + INTRA:          -4.630
REMARK INTER:                  -4.554
REMARK INTRA:                  -0.076
REMARK UNBOUND:                -0.078
REMARK SMILES NC(=[NH2+])c1ccccc1
REMARK SMILES IDX 3 1 2 2 1 3 4 8 5 9 9 10 6 11 8 12 7 13
REMARK H PARENT 3 4 3 5 1 6 1 7
ROOT
ATOM      1  N   UNL     1      -1.202 -11.456 -14.086  1.00  0.00    -0.287 N 
ATOM      2  C   UNL     1      -0.555 -12.566 -14.336  1.00  0.00     0.270 C 
ATOM      3  N   UNL     1       0.556 -12.819 -13.696  1.00  0.00    -0.287 N 
ATOM      4  H   UNL     1      -0.880 -10.735 -13.432  1.00  0.00     0.302 HD
ATOM      5  H   UNL     1      -2.069 -11.212 -14.556  1.00  0.00     0.302 HD
ATOM      6  H   UNL     1       0.950 -12.139 -13.048  1.00  0.00     0.302 HD
ATOM      7  H   UNL     1       1.087 -13.662 -13.844  1.00  0.00     0.302 HD
ENDROOT
BRANCH   2   8
ATOM      8  C   UNL     1      -1.044 -13.507 -15.357  1.00  0.00     0.063 A 
ATOM      9  C   UNL     1      -1.787 -13.062 -16.429  1.00  0.00     0.016 A 
ATOM     10  C   UNL     1      -0.753 -14.855 -15.269  1.00  0.00     0.016 A 
ATOM     11  C   UNL     1      -2.201 -13.952 -17.403  1.00  0.00     0.001 A 
ATOM     12  C   UNL     1      -1.181 -15.735 -16.239  1.00  0.00     0.001 A 
ATOM     13  C   UNL     1      -1.876 -15.283 -17.313  1.00  0.00     0.000 A 
ENDBRANCH   2   8
TORSDOF 1
ENDMDL
MODEL 8
REMARK VINA RESULT:    -4.297      2.455      3.266
REMARK INTER + INTRA:          -4.627
REMARK INTER:                  -4.555
REMARK INTRA:                  -0.071
REMARK UNBOUND:                -0.078
REMARK SMILES NC(=[NH2+])c1ccccc1
REMARK SMILES IDX 3 1 2 2 1 3 4 8 5 9 9 10 6 11 8 12 7 13
REMARK H PARENT 3 4 3 5 1 6 1 7
ROOT
ATOM      1  N   UNL     1      -3.407 -11.434 -17.253  1.00  0.00    -0.287 N 
ATOM      2  C   UNL     1      -2.185 -11.783 -16.938  1.00  0.00     0.270 C 
ATOM      3  N   UNL     1      -1.235 -10.885 -16.963  1.00  0.00    -0.287 N 
ATOM      4  H   UNL     1      -3.678 -10.492 -17.555  1.00  0.00     0.302 HD
ATOM      5  H   UNL     1      -4.180 -12.092 -17.250  1.00  0.00     0.302 HD
ATOM      6  H   UNL     1      -1.425  -9.935 -17.275  1.00  0.00     0.302 HD
ATOM      7  H   UNL     1      -0.281 -11.099 -16.722  1.00  0.00     0.302 HD
ENDROOT
BRANCH   2   8
ATOM      8  C   UNL     1      -1.866 -13.180 -16.601  1.00  0.00     0.063 A 
ATOM      9  C   UNL     1      -2.112 -14.197 -17.498  1.00  0.00     0.016 A 
ATOM     10  C   UNL     1      -1.297 -13.497 -15.383  1.00  0.00     0.016 A 
ATOM     11  C   UNL     1      -1.766 -15.497 -17.183  1.00  0.00     0.001 A 
ATOM     12  C   UNL     1      -0.967 -14.799 -15.074  1.00  0.00     0.001 A 
ATOM     13  C   UNL     1      -1.174 -15.788 -15.978  1.00  0.00     0.000 A 
ENDBRANCH   2   8
TORSDOF 1
ENDMDL
MODEL 9
REMARK VINA RESULT:    -4.109      9.505      9.978
REMARK INTER + INTRA:          -4.427
REMARK INTER:                  -4.358
REMARK INTRA:                  -0.069
REMARK UNBOUND:                -0.078
REMARK SMILES NC(=[NH2+])c1ccccc1
REMARK SMILES IDX 3 1 2 2 1 3 4 8 5 9 9 10 6 11 8 12 7 13
REMARK H PARENT 3 4 3 5 1 6 1 7
ROOT
ATOM      1  N   UNL     1       6.909  -7.722 -18.014  1.00  0.00    -0.287 N 
ATOM      2  C   UNL     1       6.327  -8.540 -18.854  1.00  0.00     0.270 C 
ATOM      3  N   UNL     1       7.012  -9.529 -19.364  1.00  0.00    -0.287 N 
ATOM      4  H   UNL     1       7.896  -7.781 -17.741  1.00  0.00     0.302 HD
ATOM      5  H   UNL     1       6.423  -6.937 -17.590  1.00  0.00     0.302 HD
ATOM      6  H   UNL     1       8.003  -9.638 -19.157  1.00  0.00     0.302 HD
ATOM      7  H   UNL     1       6.610 -10.191 -20.008  1.00  0.00     0.302 HD
ENDROOT
BRANCH   2   8
ATOM      8  C   UNL     1       4.928  -8.329 -19.260  1.00  0.00     0.063 A 
ATOM      9  C   UNL     1       4.622  -7.836 -20.510  1.00  0.00     0.016 A 
ATOM     10  C   UNL     1       3.892  -8.638 -18.400  1.00  0.00     0.016 A 
ATOM     11  C   UNL     1       3.301  -7.686 -20.891  1.00  0.00     0.001 A 
ATOM     12  C   UNL     1       2.579  -8.472 -18.786  1.00  0.00     0.001 A 
ATOM     13  C   UNL     1       2.286  -8.027 -20.033  1.00  0.00     0.000 A 
ENDBRANCH   2   8
TORSDOF 1
ENDMDL
MODEL 10
REMARK VINA RESULT:    -4.077      9.582     10.098
REMARK INTER + INTRA:          -4.393
REMARK INTER:                  -4.324
REMARK INTRA:                  -0.069
REMARK UNBOUND:                -0.078
REMARK SMILES NC(=[NH2+])c1ccccc1
REMARK SMILES IDX 3 1 2 2 1 3 4 8 5 9 9 10 6 11 8 12 7 13
REMARK H PARENT 3 4 3 5 1 6 1 7
ROOT
ATOM      1  N   UNL     1       6.902  -7.712 -18.001  1.00  0.00    -0.287 N 
ATOM      2  C   UNL     1       6.349  -8.552 -18.839  1.00  0.00     0.270 C 
ATOM      3  N   UNL     1       7.047  -9.562 -19.289  1.00  0.00    -0.287 N 
ATOM      4  H   UNL     1       7.876  -7.770 -17.685  1.00  0.00     0.302 HD
ATOM      5  H   UNL     1       6.404  -6.912 -17.622  1.00  0.00     0.302 HD
ATOM      6  H   UNL     1       8.027  -9.671 -19.037  1.00  0.00     0.302 HD
ATOM      7  H   UNL     1       6.666 -10.241 -19.928  1.00  0.00     0.302 HD
ENDROOT
BRANCH   2   8
ATOM      8  C   UNL     1       4.970  -8.345 -19.309  1.00  0.00     0.063 A 
ATOM      9  C   UNL     1       3.896  -8.596 -18.482  1.00  0.00     0.016 A 
ATOM     10  C   UNL     1       4.725  -7.878 -20.586  1.00  0.00     0.016 A 
ATOM     11  C   UNL     1       2.609  -8.353 -18.926  1.00  0.00     0.001 A 
ATOM     12  C   UNL     1       3.437  -7.652 -21.022  1.00  0.00     0.001 A 
ATOM     13  C   UNL     1       2.388  -7.861 -20.188  1.00  0.00     0.000 A 
ENDBRANCH   2   8
TORSDOF 1
ENDMDL
MODEL 11
REMARK VINA RESULT:    -3.978     10.442     10.833
REMARK INTER + INTRA:          -4.289
REMARK INTER:                  -4.220
REMARK INTRA:                  -0.069
REMARK UNBOUND:                -0.078
REMARK SMILES NC(=[NH2+])c1ccccc1
REMARK SMILES IDX 3 1 2 2 1 3 4 8 5 9 9 10 6 11 8 12 7 13
REMARK H PARENT 3 4 3 5 1 6 1 7
ROOT
ATOM      1  N   UNL     1       3.906  -5.629 -21.713  1.00  0.00    -0.287 N 
ATOM      2  C   UNL     1       4.118  -6.914 -21.848  1.00  0.00     0.270 C 
ATOM      3  N   UNL     1       3.524  -7.563 -22.814  1.00  0.00    -0.287 N 
ATOM      4  H   UNL     1       3.269  -5.084 -22.304  1.00  0.00     0.302 HD
ATOM      5  H   UNL     1       4.341  -5.078 -20.979  1.00  0.00     0.302 HD
ATOM      6  H   UNL     1       2.860  -7.094 -23.426  1.00  0.00     0.302 HD
ATOM      7  H   UNL     1       3.659  -8.550 -22.967  1.00  0.00     0.302 HD
ENDROOT
BRANCH   2   8
ATOM      8  C   UNL     1       4.981  -7.636 -20.899  1.00  0.00     0.063 A 
ATOM      9  C   UNL     1       4.555  -7.896 -19.615  1.00  0.00     0.016 A 
ATOM     10  C   UNL     1       6.230  -8.083 -21.285  1.00  0.00     0.016 A 
ATOM     11  C   UNL     1       5.360  -8.615 -18.750  1.00  0.00     0.001 A 
ATOM     12  C   UNL     1       7.029  -8.788 -20.410  1.00  0.00     0.001 A 
ATOM     13  C   UNL     1       6.586  -9.076 -19.161  1.00  0.00     0.000 A 
ENDBRANCH   2   8
TORSDOF 1
ENDMDL
MODEL 12
REMARK VINA RESULT:    -3.938     10.464     10.883
REMARK INTER + INTRA:          -4.246
REMARK INTER:                  -4.168
REMARK INTRA:                  -0.078
REMARK UNBOUND:                -0.078
REMARK SMILES NC(=[NH2+])c1ccccc1
REMARK SMILES IDX 3 1 2 2 1 3 4 8 5 9 9 10 6 11 8 12 7 13
REMARK H PARENT 3 4 3 5 1 6 1 7
ROOT
ATOM      1  N   UNL     1       2.937  -6.419 -21.443  1.00  0.00    -0.287 N 
ATOM      2  C   UNL     1       4.118  -6.835 -21.823  1.00  0.00     0.270 C 
ATOM      3  N   UNL     1       4.527  -6.579 -23.038  1.00  0.00    -0.287 N 
ATOM      4  H   UNL     1       2.278  -5.920 -22.050  1.00  0.00     0.302 HD
ATOM      5  H   UNL     1       2.571  -6.593 -20.511  1.00  0.00     0.302 HD
ATOM      6  H   UNL     1       3.919  -6.108 -23.704  1.00  0.00     0.302 HD
ATOM      7  H   UNL     1       5.430  -6.869 -23.378  1.00  0.00     0.302 HD
ENDROOT
BRANCH   2   8
ATOM      8  C   UNL     1       4.966  -7.623 -20.914  1.00  0.00     0.063 A 
ATOM      9  C   UNL     1       6.209  -8.064 -21.312  1.00  0.00     0.016 A 
ATOM     10  C   UNL     1       4.537  -7.922 -19.635  1.00  0.00     0.016 A 
ATOM     11  C   UNL     1       7.011  -8.765 -20.430  1.00  0.00     0.001 A 
ATOM     12  C   UNL     1       5.340  -8.633 -18.769  1.00  0.00     0.001 A 
ATOM     13  C   UNL     1       6.579  -9.026 -19.153  1.00  0.00     0.000 A 
ENDBRANCH   2   8
TORSDOF 1
ENDMDL
MODEL 13
REMARK VINA RESULT:    -3.847      9.846     10.267
REMARK INTER + INTRA:          -4.149
REMARK INTER:                  -4.080
REMARK INTRA:                  -0.070
REMARK UNBOUND:                -0.078
REMARK SMILES NC(=[NH2+])c1ccccc1
REMARK SMILES IDX 3 1 2 2 1 3 4 8 5 9 9 10 6 11 8 12 7 13
REMARK H PARENT 3 4 3 5 1 6 1 7
ROOT
ATOM      1  N   UNL     1       4.098  -7.588 -17.023  1.00  0.00    -0.287 N 
ATOM      2  C   UNL     1       3.890  -8.306 -18.097  1.00  0.00     0.270 C 
ATOM      3  N   UNL     1       2.808  -9.034 -18.182  1.00  0.00    -0.287 N 
ATOM      4  H   UNL     1       3.474  -7.575 -16.209  1.00  0.00     0.302 HD
ATOM      5  H   UNL     1       4.922  -7.006 -16.906  1.00  0.00     0.302 HD
ATOM      6  H   UNL     1       2.155  -9.090 -17.404  1.00  0.00     0.302 HD
ATOM      7  H   UNL     1       2.597  -9.598 -18.990  1.00  0.00     0.302 HD
ENDROOT
BRANCH   2   8
ATOM      8  C   UNL     1       4.882  -8.334 -19.185  1.00  0.00     0.063 A 
ATOM      9  C   UNL     1       4.611  -7.750 -20.403  1.00  0.00     0.016 A 
ATOM     10  C   UNL     1       6.113  -8.934 -18.999  1.00  0.00     0.016 A 
ATOM     11  C   UNL     1       5.570  -7.747 -21.399  1.00  0.00     0.001 A 
ATOM     12  C   UNL     1       7.057  -8.935 -20.003  1.00  0.00     0.001 A 
ATOM     13  C   UNL     1       6.798  -8.322 -21.184  1.00  0.00     0.000 A 
ENDBRANCH   2   8
TORSDOF 1
ENDMDL
MODEL 14
REMARK VINA RESULT:    -3.797      9.666     10.209
REMARK INTER + INTRA:          -4.097
REMARK INTER:                  -4.028
REMARK INTRA:                  -0.069
REMARK UNBOUND:                -0.078
REMARK SMILES NC(=[NH2+])c1ccccc1
REMARK SMILES IDX 3 1 2 2 1 3 4 8 5 9 9 10 6 11 8 12 7 13
REMARK H PARENT 3 4 3 5 1 6 1 7
ROOT
ATOM      1  N   UNL     1       3.697  -7.693 -17.038  1.00  0.00    -0.287 N 
ATOM      2  C   UNL     1       3.628  -8.406 -18.134  1.00  0.00     0.270 C 
ATOM      3  N   UNL     1       2.613  -9.209 -18.314  1.00  0.00    -0.287 N 
ATOM      4  H   UNL     1       3.013  -7.741 -16.275  1.00  0.00     0.302 HD
ATOM      5  H   UNL     1       4.464  -7.055 -16.849  1.00  0.00     0.302 HD
ATOM      6  H   UNL     1       1.907  -9.326 -17.590  1.00  0.00     0.302 HD
ATOM      7  H   UNL     1       2.507  -9.773 -19.142  1.00  0.00     0.302 HD
ENDROOT
BRANCH   2   8
ATOM      8  C   UNL     1       4.701  -8.342 -19.140  1.00  0.00     0.063 A 
ATOM      9  C   UNL     1       5.935  -8.903 -18.893  1.00  0.00     0.016 A 
ATOM     10  C   UNL     1       4.485  -7.732 -20.361  1.00  0.00     0.016 A 
ATOM     11  C   UNL     1       6.917  -8.873 -19.866  1.00  0.00     0.001 A 
ATOM     12  C   UNL     1       5.476  -7.697 -21.319  1.00  0.00     0.001 A 
ATOM     13  C   UNL     1       6.673  -8.288 -21.084  1.00  0.00     0.000 A 
ENDBRANCH   2   8
TORSDOF 1
ENDMDL
MODEL 15
REMARK VINA RESULT:    -3.746      9.786     10.281
REMARK INTER + INTRA:          -4.043
REMARK INTER:                  -3.972
REMARK INTRA:                  -0.071
REMARK UNBOUND:                -0.078
REMARK SMILES NC(=[NH2+])c1ccccc1
REMARK SMILES IDX 3 1 2 2 1 3 4 8 5 9 9 10 6 11 8 12 7 13
REMARK H PARENT 3 4 3 5 1 6 1 7
ROOT
ATOM      1  N   UNL     1       2.662  -6.445 -19.686  1.00  0.00    -0.287 N 
ATOM      2  C   UNL     1       3.079  -7.680 -19.568  1.00  0.00     0.270 C 
ATOM      3  N   UNL     1       2.241  -8.605 -19.180  1.00  0.00    -0.287 N 
ATOM      4  H   UNL     1       1.710  -6.134 -19.463  1.00  0.00     0.302 HD
ATOM      5  H   UNL     1       3.271  -5.689 -19.982  1.00  0.00     0.302 HD
ATOM      6  H   UNL     1       1.286  -8.368 -18.919  1.00  0.00     0.302 HD
ATOM      7  H   UNL     1       2.509  -9.572 -19.081  1.00  0.00     0.302 HD
ENDROOT
BRANCH   2   8
ATOM      8  C   UNL     1       4.487  -8.025 -19.824  1.00  0.00     0.063 A 
ATOM      9  C   UNL     1       5.256  -8.624 -18.850  1.00  0.00     0.016 A 
ATOM     10  C   UNL     1       5.061  -7.769 -21.054  1.00  0.00     0.016 A 
ATOM     11  C   UNL     1       6.563  -8.982 -19.122  1.00  0.00     0.001 A 
ATOM     12  C   UNL     1       6.370  -8.119 -21.310  1.00  0.00     0.001 A 
ATOM     13  C   UNL     1       7.107  -8.746 -20.361  1.00  0.00     0.000 A 
ENDBRANCH   2   8
TORSDOF 1
ENDMDL
MODEL 16
REMARK VINA RESULT:    -3.712      2.372      3.449
REMARK INTER + INTRA:          -4.007
REMARK INTER:                  -3.938
REMARK INTRA:                  -0.069
REMARK UNBOUND:                -0.078
REMARK SMILES NC(=[NH2+])c1ccccc1
REMARK SMILES IDX 3 1 2 2 1 3 4 8 5 9 9 10 6 11 8 12 7 13
REMARK H PARENT 3 4 3 5 1 6 1 7
ROOT
ATOM      1  N   UNL     1      -0.385 -15.596 -15.718  1.00  0.00    -0.287 N 
ATOM      2  C   UNL     1      -0.979 -14.733 -14.933  1.00  0.00     0.270 C 
ATOM      3  N   UNL     1      -1.316 -15.093 -13.723  1.00  0.00    -0.287 N 
ATOM      4  H   UNL     1      -0.184 -16.568 -15.459  1.00  0.00     0.302 HD
ATOM      5  H   UNL     1      -0.104 -15.368 -16.667  1.00  0.00     0.302 HD
ATOM      6  H   UNL     1      -1.169 -16.048 -13.404  1.00  0.00     0.302 HD
ATOM      7  H   UNL     1      -1.767 -14.466 -13.077  1.00  0.00     0.302 HD
ENDROOT
BRANCH   2   8
ATOM      8  C   UNL     1      -1.309 -13.383 -15.416  1.00  0.00     0.063 A 
ATOM      9  C   UNL     1      -0.546 -12.295 -15.050  1.00  0.00     0.016 A 
ATOM     10  C   UNL     1      -2.383 -13.181 -16.262  1.00  0.00     0.016 A 
ATOM     11  C   UNL     1      -0.843 -11.040 -15.549  1.00  0.00     0.001 A 
ATOM     12  C   UNL     1      -2.678 -11.923 -16.742  1.00  0.00     0.001 A 
ATOM     13  C   UNL     1      -1.897 -10.865 -16.411  1.00  0.00     0.000 A 
ENDBRANCH   2   8
TORSDOF 1
ENDMDL
MODEL 17
REMARK VINA RESULT:    -3.710      9.823     10.250
REMARK INTER + INTRA:          -4.005
REMARK INTER:                  -3.937
REMARK INTRA:                  -0.068
REMARK UNBOUND:                -0.078
REMARK SMILES NC(=[NH2+])c1ccccc1
REMARK SMILES IDX 3 1 2 2 1 3 4 8 5 9 9 10 6 11 8 12 7 13
REMARK H PARENT 3 4 3 5 1 6 1 7
ROOT
ATOM      1  N   UNL     1       2.862  -6.491 -18.944  1.00  0.00    -0.287 N 
ATOM      2  C   UNL     1       3.114  -7.611 -19.573  1.00  0.00     0.270 C 
ATOM      3  N   UNL     1       2.123  -8.390 -19.919  1.00  0.00    -0.287 N 
ATOM      4  H   UNL     1       1.923  -6.184 -18.668  1.00  0.00     0.302 HD
ATOM      5  H   UNL     1       3.595  -5.852 -18.653  1.00  0.00     0.302 HD
ATOM      6  H   UNL     1       1.166  -8.162 -19.658  1.00  0.00     0.302 HD
ATOM      7  H   UNL     1       2.262  -9.258 -20.412  1.00  0.00     0.302 HD
ENDROOT
BRANCH   2   8
ATOM      8  C   UNL     1       4.500  -8.019 -19.854  1.00  0.00     0.063 A 
ATOM      9  C   UNL     1       5.072  -7.778 -21.084  1.00  0.00     0.016 A 
ATOM     10  C   UNL     1       5.262  -8.637 -18.881  1.00  0.00     0.016 A 
ATOM     11  C   UNL     1       6.390  -8.128 -21.317  1.00  0.00     0.001 A 
ATOM     12  C   UNL     1       6.571  -8.993 -19.128  1.00  0.00     0.001 A 
ATOM     13  C   UNL     1       7.139  -8.715 -20.327  1.00  0.00     0.000 A 
ENDBRANCH   2   8
TORSDOF 1
ENDMDL
MODEL 18
REMARK VINA RESULT:    -3.706     10.776     11.286
REMARK INTER + INTRA:          -4.001
REMARK INTER:                  -3.931
REMARK INTRA:                  -0.070
REMARK UNBOUND:                -0.078
REMARK SMILES NC(=[NH2+])c1ccccc1
REMARK SMILES IDX 3 1 2 2 1 3 4 8 5 9 9 10 6 11 8 12 7 13
REMARK H PARENT 3 4 3 5 1 6 1 7
ROOT
ATOM      1  N   UNL     1       6.559  -6.691 -16.304  1.00  0.00    -0.287 N 
ATOM      2  C   UNL     1       5.560  -7.044 -17.073  1.00  0.00     0.270 C 
ATOM      3  N   UNL     1       4.349  -7.066 -16.581  1.00  0.00    -0.287 N 
ATOM      4  H   UNL     1       6.466  -6.453 -15.310  1.00  0.00     0.302 HD
ATOM      5  H   UNL     1       7.518  -6.659 -16.635  1.00  0.00     0.302 HD
ATOM      6  H   UNL     1       4.183  -6.864 -15.598  1.00  0.00     0.302 HD
ATOM      7  H   UNL     1       3.545  -7.321 -17.132  1.00  0.00     0.302 HD
ENDROOT
BRANCH   2   8
ATOM      8  C   UNL     1       5.795  -7.456 -18.466  1.00  0.00     0.063 A 
ATOM      9  C   UNL     1       5.305  -6.709 -19.516  1.00  0.00     0.016 A 
ATOM     10  C   UNL     1       6.526  -8.593 -18.750  1.00  0.00     0.016 A 
ATOM     11  C   UNL     1       5.573  -7.086 -20.819  1.00  0.00     0.001 A 
ATOM     12  C   UNL     1       6.776  -8.966 -20.053  1.00  0.00     0.001 A 
ATOM     13  C   UNL     1       6.327  -8.203 -21.080  1.00  0.00     0.000 A 
ENDBRANCH   2   8
TORSDOF 1
ENDMDL
MODEL 19
REMARK VINA RESULT:    -3.691     11.625     11.979
REMARK INTER + INTRA:          -3.985
REMARK INTER:                  -3.910
REMARK INTRA:                  -0.075
REMARK UNBOUND:                -0.078
REMARK SMILES NC(=[NH2+])c1ccccc1
REMARK SMILES IDX 3 1 2 2 1 3 4 8 5 9 9 10 6 11 8 12 7 13
REMARK H PARENT 3 4 3 5 1 6 1 7
ROOT
ATOM      1  N   UNL     1       6.890  -9.507 -19.103  1.00  0.00    -0.287 N 
ATOM      2  C   UNL     1       7.282  -9.098 -20.283  1.00  0.00     0.270 C 
ATOM      3  N   UNL     1       8.358  -9.615 -20.816  1.00  0.00    -0.287 N 
ATOM      4  H   UNL     1       7.393 -10.198 -18.536  1.00  0.00     0.302 HD
ATOM      5  H   UNL     1       6.063  -9.138 -18.644  1.00  0.00     0.302 HD
ATOM      6  H   UNL     1       8.921 -10.289 -20.302  1.00  0.00     0.302 HD
ATOM      7  H   UNL     1       8.697  -9.342 -21.725  1.00  0.00     0.302 HD
ENDROOT
BRANCH   2   8
ATOM      8  C   UNL     1       6.549  -8.037 -20.992  1.00  0.00     0.063 A 
ATOM      9  C   UNL     1       5.174  -7.961 -20.924  1.00  0.00     0.016 A 
ATOM     10  C   UNL     1       7.227  -7.083 -21.726  1.00  0.00     0.016 A 
ATOM     11  C   UNL     1       4.504  -6.932 -21.559  1.00  0.00     0.001 A 
ATOM     12  C   UNL     1       6.548  -6.068 -22.366  1.00  0.00     0.001 A 
ATOM     13  C   UNL     1       5.199  -5.977 -22.260  1.00  0.00     0.000 A 
ENDBRANCH   2   8
TORSDOF 1
ENDMDL
