MODEL 1
REMARK VINA RESULT:    -5.963      0.000      0.000
REMARK INTER + INTRA:          -6.348
REMARK INTER:                  -6.311
REMARK INTRA:                  -0.036
REMARK UNBOUND:                -0.036
REMARK SMILES NC(=[NH2+])c1ccccc1
REMARK SMILES IDX 3 1 2 2 1 3 4 8 5 9 9 10 6 11 8 12 7 13
REMARK H PARENT 3 4 3 5 1 6 1 7
ROOT
ATOM      1  N   UNL     1      -2.863 -15.099 -19.165  1.00  0.00    -0.287 N 
ATOM      2  C   UNL     1      -2.126 -15.617 -18.215  1.00  0.00     0.270 C 
ATOM      3  N   UNL     1      -1.676 -16.838 -18.346  1.00  0.00    -0.287 N 
ATOM      4  H   UNL     1      -3.147 -15.601 -20.013  1.00  0.00     0.302 HD
ATOM      5  H   UNL     1      -3.238 -14.157 -19.112  1.00  0.00     0.302 HD
ATOM      6  H   UNL     1      -1.936 -17.405 -19.150  1.00  0.00     0.302 HD
ATOM      7  H   UNL     1      -1.098 -17.280 -17.650  1.00  0.00     0.302 HD
ENDROOT
BRANCH   2   8
ATOM      8  C   UNL     1      -1.838 -14.857 -16.988  1.00  0.00     0.063 A 
ATOM      9  C   UNL     1      -2.455 -13.648 -16.745  1.00  0.00     0.016 A 
ATOM     10  C   UNL     1      -0.954 -15.348 -16.047  1.00  0.00     0.016 A 
ATOM     11  C   UNL     1      -2.207 -12.968 -15.567  1.00  0.00     0.001 A 
ATOM     12  C   UNL     1      -0.705 -14.655 -14.882  1.00  0.00     0.001 A 
ATOM     13  C   UNL     1      -1.348 -13.488 -14.631  1.00  0.00     0.000 A 
ENDBRANCH   2   8
TORSDOF 1
ENDMDL
MODEL 2
REMARK VINA RESULT:    -5.939      0.089      1.580
REMARK INTER + INTRA:          -6.322
REMARK INTER:                  -6.286
REMARK INTRA:                  -0.036
REMARK UNBOUND:                -0.036
REMARK SMILES NC(=[NH2+])c1ccccc1
REMARK SMILES IDX 3 1 2 2 1 3 4 8 5 9 9 10 6 11 8 12 7 13
REMARK H PARENT 3 4 3 5 1 6 1 7
ROOT
ATOM      1  N   UNL     1      -2.864 -15.109 -19.158  1.00  0.00    -0.287 N 
ATOM      2  C   UNL     1      -2.108 -15.648 -18.236  1.00  0.00     0.270 C 
ATOM      3  N   UNL     1      -1.642 -16.856 -18.415  1.00  0.00    -0.287 N 
ATOM      4  H   UNL     1      -3.151 -15.585 -20.020  1.00  0.00     0.302 HD
ATOM      5  H   UNL     1      -3.253 -14.175 -19.068  1.00  0.00     0.302 HD
ATOM      6  H   UNL     1      -1.903 -17.399 -19.236  1.00  0.00     0.302 HD
ATOM      7  H   UNL     1      -1.049 -17.314 -17.741  1.00  0.00     0.302 HD
ENDROOT
BRANCH   2   8
ATOM      8  C   UNL     1      -1.816 -14.927 -16.987  1.00  0.00     0.063 A 
ATOM      9  C   UNL     1      -0.909 -15.426 -16.078  1.00  0.00     0.016 A 
ATOM     10  C   UNL     1      -2.435 -13.723 -16.709  1.00  0.00     0.016 A 
ATOM     11  C   UNL     1      -0.614 -14.714 -14.930  1.00  0.00     0.001 A 
ATOM     12  C   UNL     1      -2.142 -13.027 -15.556  1.00  0.00     0.001 A 
ATOM     13  C   UNL     1      -1.218 -13.505 -14.687  1.00  0.00     0.000 A 
ENDBRANCH   2   8
TORSDOF 1
ENDMDL
MODEL 3
REMARK VINA RESULT:    -5.925      0.109      1.070
REMARK INTER + INTRA:          -6.308
REMARK INTER:                  -6.272
REMARK INTRA:                  -0.036
REMARK UNBOUND:                -0.036
REMARK SMILES NC(=[NH2+])c1ccccc1
REMARK SMILES IDX 3 1 2 2 1 3 4 8 5 9 9 10 6 11 8 12 7 13
REMARK H PARENT 3 4 3 5 1 6 1 7
ROOT
ATOM      1  N   UNL     1      -1.654 -16.871 -18.413  1.00  0.00    -0.287 N 
ATOM      2  C   UNL     1      -2.125 -15.666 -18.212  1.00  0.00     0.270 C 
ATOM      3  N   UNL     1      -2.858 -15.101 -19.135  1.00  0.00    -0.287 N 
ATOM      4  H   UNL     1      -1.795 -17.408 -19.275  1.00  0.00     0.302 HD
ATOM      5  H   UNL     1      -1.079 -17.354 -17.729  1.00  0.00     0.302 HD
ATOM      6  H   UNL     1      -3.021 -15.565 -20.026  1.00  0.00     0.302 HD
ATOM      7  H   UNL     1      -3.251 -14.180 -19.026  1.00  0.00     0.302 HD
ENDROOT
BRANCH   2   8
ATOM      8  C   UNL     1      -1.801 -14.930 -16.979  1.00  0.00     0.063 A 
ATOM      9  C   UNL     1      -2.392 -13.715 -16.706  1.00  0.00     0.016 A 
ATOM     10  C   UNL     1      -0.909 -15.452 -16.062  1.00  0.00     0.016 A 
ATOM     11  C   UNL     1      -2.110 -13.058 -15.522  1.00  0.00     0.001 A 
ATOM     12  C   UNL     1      -0.626 -14.781 -14.891  1.00  0.00     0.001 A 
ATOM     13  C   UNL     1      -1.243 -13.607 -14.610  1.00  0.00     0.000 A 
ENDBRANCH   2   8
TORSDOF 1
ENDMDL
MODEL 4
REMARK VINA RESULT:    -5.911      0.083      1.905
REMARK INTER + INTRA:          -6.293
REMARK INTER:                  -6.257
REMARK INTRA:                  -0.036
REMARK UNBOUND:                -0.036
REMARK SMILES NC(=[NH2+])c1ccccc1
REMARK SMILES IDX 3 1 2 2 1 3 4 8 5 9 9 10 6 11 8 12 7 13
REMARK H PARENT 3 4 3 5 1 6 1 7
ROOT
ATOM      1  N   UNL     1      -1.648 -16.868 -18.410  1.00  0.00    -0.287 N 
ATOM      2  C   UNL     1      -2.135 -15.668 -18.220  1.00  0.00     0.270 C 
ATOM      3  N   UNL     1      -2.863 -15.117 -19.156  1.00  0.00    -0.287 N 
ATOM      4  H   UNL     1      -1.771 -17.412 -19.270  1.00  0.00     0.302 HD
ATOM      5  H   UNL     1      -1.076 -17.341 -17.716  1.00  0.00     0.302 HD
ATOM      6  H   UNL     1      -3.009 -15.587 -20.047  1.00  0.00     0.302 HD
ATOM      7  H   UNL     1      -3.269 -14.200 -19.057  1.00  0.00     0.302 HD
ENDROOT
BRANCH   2   8
ATOM      8  C   UNL     1      -1.836 -14.922 -16.988  1.00  0.00     0.063 A 
ATOM      9  C   UNL     1      -0.926 -15.406 -16.072  1.00  0.00     0.016 A 
ATOM     10  C   UNL     1      -2.449 -13.710 -16.733  1.00  0.00     0.016 A 
ATOM     11  C   UNL     1      -0.623 -14.670 -14.941  1.00  0.00     0.001 A 
ATOM     12  C   UNL     1      -2.148 -12.992 -15.595  1.00  0.00     0.001 A 
ATOM     13  C   UNL     1      -1.222 -13.454 -14.720  1.00  0.00     0.000 A 
ENDBRANCH   2   8
TORSDOF 1
ENDMDL
MODEL 5
REMARK VINA RESULT:    -5.669      0.925      2.091
REMARK INTER + INTRA:          -6.037
REMARK INTER:                  -6.001
REMARK INTRA:                  -0.036
REMARK UNBOUND:                -0.036
REMARK SMILES NC(=[NH2+])c1ccccc1
REMARK SMILES IDX 3 1 2 2 1 3 4 8 5 9 9 10 6 11 8 12 7 13
REMARK H PARENT 3 4 3 5 1 6 1 7
ROOT
ATOM      1  N   UNL     1      -0.101 -16.988 -17.341  1.00  0.00    -0.287 N 
ATOM      2  C   UNL     1      -1.173 -16.262 -17.534  1.00  0.00     0.270 C 
ATOM      3  N   UNL     1      -1.978 -16.556 -18.521  1.00  0.00    -0.287 N 
ATOM      4  H   UNL     1       0.179 -17.773 -17.939  1.00  0.00     0.302 HD
ATOM      5  H   UNL     1       0.557 -16.802 -16.591  1.00  0.00     0.302 HD
ATOM      6  H   UNL     1      -1.753 -17.307 -19.171  1.00  0.00     0.302 HD
ATOM      7  H   UNL     1      -2.820 -16.035 -18.708  1.00  0.00     0.302 HD
ENDROOT
BRANCH   2   8
ATOM      8  C   UNL     1      -1.454 -15.097 -16.680  1.00  0.00     0.063 A 
ATOM      9  C   UNL     1      -0.775 -14.909 -15.496  1.00  0.00     0.016 A 
ATOM     10  C   UNL     1      -2.394 -14.158 -17.058  1.00  0.00     0.016 A 
ATOM     11  C   UNL     1      -1.019 -13.786 -14.727  1.00  0.00     0.001 A 
ATOM     12  C   UNL     1      -2.639 -13.048 -16.278  1.00  0.00     0.001 A 
ATOM     13  C   UNL     1      -1.937 -12.849 -15.135  1.00  0.00     0.000 A 
ENDBRANCH   2   8
TORSDOF 1
ENDMDL
MODEL 6
REMARK VINA RESULT:    -4.906      2.633      3.947
REMARK INTER + INTRA:          -5.229
REMARK INTER:                  -5.207
REMARK INTRA:                  -0.022
REMARK UNBOUND:                -0.036
REMARK SMILES NC(=[NH2+])c1ccccc1
REMARK SMILES IDX 3 1 2 2 1 3 4 8 5 9 9 10 6 11 8 12 7 13
REMARK H PARENT 3 4 3 5 1 6 1 7
ROOT
ATOM      1  N   UNL     1      -0.038 -13.502 -14.553  1.00  0.00    -0.287 N 
ATOM      2  C   UNL     1      -0.878 -14.486 -14.756  1.00  0.00     0.270 C 
ATOM      3  N   UNL     1      -1.420 -15.089 -13.731  1.00  0.00    -0.287 N 
ATOM      4  H   UNL     1       0.257 -13.179 -13.625  1.00  0.00     0.302 HD
ATOM      5  H   UNL     1       0.411 -13.001 -15.313  1.00  0.00     0.302 HD
ATOM      6  H   UNL     1      -1.157 -14.838 -12.780  1.00  0.00     0.302 HD
ATOM      7  H   UNL     1      -2.078 -15.845 -13.833  1.00  0.00     0.302 HD
ENDROOT
BRANCH   2   8
ATOM      8  C   UNL     1      -1.180 -14.944 -16.122  1.00  0.00     0.063 A 
ATOM      9  C   UNL     1      -0.680 -16.139 -16.592  1.00  0.00     0.016 A 
ATOM     10  C   UNL     1      -1.986 -14.192 -16.954  1.00  0.00     0.016 A 
ATOM     11  C   UNL     1      -1.010 -16.577 -17.862  1.00  0.00     0.001 A 
ATOM     12  C   UNL     1      -2.298 -14.632 -18.223  1.00  0.00     0.001 A 
ATOM     13  C   UNL     1      -1.837 -15.828 -18.663  1.00  0.00     0.000 A 
ENDBRANCH   2   8
TORSDOF 1
ENDMDL
MODEL 7
REMARK VINA RESULT:    -4.725      3.099      3.844
REMARK INTER + INTRA:          -5.038
REMARK INTER:                  -5.004
REMARK INTRA:                  -0.034
REMARK UNBOUND:                -0.036
REMARK SMILES NC(=[NH2+])c1ccccc1
REMARK SMILES IDX 3 1 2 2 1 3 4 8 5 9 9 10 6 11 8 12 7 13
REMARK H PARENT 3 4 3 5 1 6 1 7
ROOT
ATOM      1  N   UNL     1      -1.303 -11.289 -14.533  1.00  0.00    -0.287 N 
ATOM      2  C   UNL     1      -0.601 -12.391 -14.621  1.00  0.00     0.270 C 
ATOM      3  N   UNL     1       0.498 -12.508 -13.925  1.00  0.00    -0.287 N 
ATOM      4  H   UNL     1      -1.034 -10.478 -13.966  1.00  0.00     0.302 HD
ATOM      5  H   UNL     1      -2.164 -11.147 -15.053  1.00  0.00     0.302 HD
ATOM      6  H   UNL     1       0.841 -11.735 -13.358  1.00  0.00     0.302 HD
ATOM      7  H   UNL     1       1.070 -13.337 -13.950  1.00  0.00     0.302 HD
ENDROOT
BRANCH   2   8
ATOM      8  C   UNL     1      -1.016 -13.474 -15.528  1.00  0.00     0.063 A 
ATOM      9  C   UNL     1      -1.777 -13.208 -16.645  1.00  0.00     0.016 A 
ATOM     10  C   UNL     1      -0.633 -14.779 -15.285  1.00  0.00     0.016 A 
ATOM     11  C   UNL     1      -2.120 -14.230 -17.510  1.00  0.00     0.001 A 
ATOM     12  C   UNL     1      -0.992 -15.793 -16.148  1.00  0.00     0.001 A 
ATOM     13  C   UNL     1      -1.706 -15.517 -17.267  1.00  0.00     0.000 A 
ENDBRANCH   2   8
TORSDOF 1
ENDMDL
MODEL 8
REMARK VINA RESULT:    -4.725     10.806     11.038
REMARK INTER + INTRA:          -5.037
REMARK INTER:                  -5.009
REMARK INTRA:                  -0.028
REMARK UNBOUND:                -0.036
REMARK SMILES NC(=[NH2+])c1ccccc1
REMARK SMILES IDX 3 1 2 2 1 3 4 8 5 9 9 10 6 11 8 12 7 13
REMARK H PARENT 3 4 3 5 1 6 1 7
ROOT
ATOM      1  N   UNL     1       8.374  -9.865 -21.046  1.00  0.00    -0.287 N 
ATOM      2  C   UNL     1       7.713  -8.736 -21.090  1.00  0.00     0.270 C 
ATOM      3  N   UNL     1       8.235  -7.711 -21.710  1.00  0.00    -0.287 N 
ATOM      4  H   UNL     1       9.309 -10.002 -21.447  1.00  0.00     0.302 HD
ATOM      5  H   UNL     1       8.015 -10.691 -20.577  1.00  0.00     0.302 HD
ATOM      6  H   UNL     1       9.168  -7.765 -22.111  1.00  0.00     0.302 HD
ATOM      7  H   UNL     1       7.764  -6.823 -21.780  1.00  0.00     0.302 HD
ENDROOT
BRANCH   2   8
ATOM      8  C   UNL     1       6.413  -8.601 -20.412  1.00  0.00     0.063 A 
ATOM      9  C   UNL     1       6.236  -9.064 -19.126  1.00  0.00     0.016 A 
ATOM     10  C   UNL     1       5.349  -7.990 -21.046  1.00  0.00     0.016 A 
ATOM     11  C   UNL     1       5.022  -8.889 -18.487  1.00  0.00     0.001 A 
ATOM     12  C   UNL     1       4.139  -7.832 -20.404  1.00  0.00     0.001 A 
ATOM     13  C   UNL     1       3.986  -8.253 -19.125  1.00  0.00     0.000 A 
ENDBRANCH   2   8
TORSDOF 1
ENDMDL
MODEL 9
REMARK VINA RESULT:    -4.716      3.099      4.136
REMARK INTER + INTRA:          -5.028
REMARK INTER:                  -4.994
REMARK INTRA:                  -0.033
REMARK UNBOUND:                -0.036
REMARK SMILES NC(=[NH2+])c1ccccc1
REMARK SMILES IDX 3 1 2 2 1 3 4 8 5 9 9 10 6 11 8 12 7 13
REMARK H PARENT 3 4 3 5 1 6 1 7
ROOT
ATOM      1  N   UNL     1      -1.355 -11.302 -14.566  1.00  0.00    -0.287 N 
ATOM      2  C   UNL     1      -0.625 -12.387 -14.631  1.00  0.00     0.270 C 
ATOM      3  N   UNL     1       0.450 -12.482 -13.893  1.00  0.00    -0.287 N 
ATOM      4  H   UNL     1      -1.126 -10.487 -13.988  1.00  0.00     0.302 HD
ATOM      5  H   UNL     1      -2.198 -11.178 -15.119  1.00  0.00     0.302 HD
ATOM      6  H   UNL     1       0.753 -11.704 -13.312  1.00  0.00     0.302 HD
ATOM      7  H   UNL     1       1.041 -13.298 -13.899  1.00  0.00     0.302 HD
ENDROOT
BRANCH   2   8
ATOM      8  C   UNL     1      -0.979 -13.476 -15.556  1.00  0.00     0.063 A 
ATOM      9  C   UNL     1      -0.595 -14.774 -15.299  1.00  0.00     0.016 A 
ATOM     10  C   UNL     1      -1.720 -13.220 -16.694  1.00  0.00     0.016 A 
ATOM     11  C   UNL     1      -0.974 -15.792 -16.155  1.00  0.00     0.001 A 
ATOM     12  C   UNL     1      -2.081 -14.240 -17.547  1.00  0.00     0.001 A 
ATOM     13  C   UNL     1      -1.735 -15.521 -17.265  1.00  0.00     0.000 A 
ENDBRANCH   2   8
TORSDOF 1
ENDMDL
MODEL 10
REMARK VINA RESULT:    -4.690     10.813     10.956
REMARK INTER + INTRA:          -5.001
REMARK INTER:                  -4.973
REMARK INTRA:                  -0.028
REMARK UNBOUND:                -0.036
REMARK SMILES NC(=[NH2+])c1ccccc1
REMARK SMILES IDX 3 1 2 2 1 3 4 8 5 9 9 10 6 11 8 12 7 13
REMARK H PARENT 3 4 3 5 1 6 1 7
ROOT
ATOM      1  N   UNL     1       8.375  -9.867 -21.043  1.00  0.00    -0.287 N 
ATOM      2  C   UNL     1       7.728  -8.731 -21.096  1.00  0.00     0.270 C 
ATOM      3  N   UNL     1       8.256  -7.721 -21.736  1.00  0.00    -0.287 N 
ATOM      4  H   UNL     1       9.303 -10.022 -21.450  1.00  0.00     0.302 HD
ATOM      5  H   UNL     1       8.009 -10.681 -20.558  1.00  0.00     0.302 HD
ATOM      6  H   UNL     1       9.185  -7.793 -22.146  1.00  0.00     0.302 HD
ATOM      7  H   UNL     1       7.797  -6.828 -21.815  1.00  0.00     0.302 HD
ENDROOT
BRANCH   2   8
ATOM      8  C   UNL     1       6.437  -8.569 -20.408  1.00  0.00     0.063 A 
ATOM      9  C   UNL     1       5.361  -7.993 -21.050  1.00  0.00     0.016 A 
ATOM     10  C   UNL     1       6.273  -9.007 -19.108  1.00  0.00     0.016 A 
ATOM     11  C   UNL     1       4.144  -7.889 -20.403  1.00  0.00     0.001 A 
ATOM     12  C   UNL     1       5.058  -8.886 -18.469  1.00  0.00     0.001 A 
ATOM     13  C   UNL     1       3.993  -8.357 -19.121  1.00  0.00     0.000 A 
ENDBRANCH   2   8
TORSDOF 1
ENDMDL
MODEL 11
REMARK VINA RESULT:    -4.597      2.432      3.411
REMARK INTER + INTRA:          -4.902
REMARK INTER:                  -4.866
REMARK INTRA:                  -0.036
REMARK UNBOUND:                -0.036
REMARK SMILES NC(=[NH2+])c1ccccc1
REMARK SMILES IDX 3 1 2 2 1 3 4 8 5 9 9 10 6 11 8 12 7 13
REMARK H PARENT 3 4 3 5 1 6 1 7
ROOT
ATOM      1  N   UNL     1      -1.816 -10.975 -15.564  1.00  0.00    -0.287 N 
ATOM      2  C   UNL     1      -2.013 -11.807 -16.555  1.00  0.00     0.270 C 
ATOM      3  N   UNL     1      -2.579 -11.376 -17.652  1.00  0.00    -0.287 N 
ATOM      4  H   UNL     1      -2.107  -9.992 -15.570  1.00  0.00     0.302 HD
ATOM      5  H   UNL     1      -1.382 -11.259 -14.691  1.00  0.00     0.302 HD
ATOM      6  H   UNL     1      -2.914 -10.418 -17.722  1.00  0.00     0.302 HD
ATOM      7  H   UNL     1      -2.745 -11.972 -18.447  1.00  0.00     0.302 HD
ENDROOT
BRANCH   2   8
ATOM      8  C   UNL     1      -1.644 -13.227 -16.429  1.00  0.00     0.063 A 
ATOM      9  C   UNL     1      -2.065 -14.152 -17.359  1.00  0.00     0.016 A 
ATOM     10  C   UNL     1      -0.853 -13.657 -15.381  1.00  0.00     0.016 A 
ATOM     11  C   UNL     1      -1.673 -15.473 -17.250  1.00  0.00     0.001 A 
ATOM     12  C   UNL     1      -0.478 -14.980 -15.275  1.00  0.00     0.001 A 
ATOM     13  C   UNL     1      -0.862 -15.875 -16.218  1.00  0.00     0.000 A 
ENDBRANCH   2   8
TORSDOF 1
ENDMDL
MODEL 12
REMARK VINA RESULT:    -4.587      2.476      3.538
REMARK INTER + INTRA:          -4.892
REMARK INTER:                  -4.856
REMARK INTRA:                  -0.036
REMARK UNBOUND:                -0.036
REMARK SMILES NC(=[NH2+])c1ccccc1
REMARK SMILES IDX 3 1 2 2 1 3 4 8 5 9 9 10 6 11 8 12 7 13
REMARK H PARENT 3 4 3 5 1 6 1 7
ROOT
ATOM      1  N   UNL     1      -2.528 -11.266 -17.613  1.00  0.00    -0.287 N 
ATOM      2  C   UNL     1      -1.963 -11.743 -16.533  1.00  0.00     0.270 C 
ATOM      3  N   UNL     1      -1.674 -10.933 -15.549  1.00  0.00    -0.287 N 
ATOM      4  H   UNL     1      -2.740 -10.274 -17.763  1.00  0.00     0.302 HD
ATOM      5  H   UNL     1      -2.772 -11.851 -18.406  1.00  0.00     0.302 HD
ATOM      6  H   UNL     1      -1.834  -9.931 -15.635  1.00  0.00     0.302 HD
ATOM      7  H   UNL     1      -1.248 -11.250 -14.693  1.00  0.00     0.302 HD
ENDROOT
BRANCH   2   8
ATOM      8  C   UNL     1      -1.613 -13.169 -16.437  1.00  0.00     0.063 A 
ATOM      9  C   UNL     1      -0.857 -13.641 -15.385  1.00  0.00     0.016 A 
ATOM     10  C   UNL     1      -2.051 -14.067 -17.391  1.00  0.00     0.016 A 
ATOM     11  C   UNL     1      -0.574 -14.991 -15.286  1.00  0.00     0.001 A 
ATOM     12  C   UNL     1      -1.753 -15.409 -17.288  1.00  0.00     0.001 A 
ATOM     13  C   UNL     1      -1.044 -15.872 -16.229  1.00  0.00     0.000 A 
ENDBRANCH   2   8
TORSDOF 1
ENDMDL
MODEL 13
REMARK VINA RESULT:    -4.352     10.369     10.611
REMARK INTER + INTRA:          -4.643
REMARK INTER:                  -4.618
REMARK INTRA:                  -0.025
REMARK UNBOUND:                -0.036
REMARK SMILES NC(=[NH2+])c1ccccc1
REMARK SMILES IDX 3 1 2 2 1 3 4 8 5 9 9 10 6 11 8 12 7 13
REMARK H PARENT 3 4 3 5 1 6 1 7
ROOT
ATOM      1  N   UNL     1       3.090  -7.799 -22.506  1.00  0.00    -0.287 N 
ATOM      2  C   UNL     1       4.203  -7.276 -22.056  1.00  0.00     0.270 C 
ATOM      3  N   UNL     1       4.671  -6.190 -22.612  1.00  0.00    -0.287 N 
ATOM      4  H   UNL     1       2.559  -7.428 -23.301  1.00  0.00     0.302 HD
ATOM      5  H   UNL     1       2.684  -8.642 -22.111  1.00  0.00     0.302 HD
ATOM      6  H   UNL     1       4.211  -5.778 -23.421  1.00  0.00     0.302 HD
ATOM      7  H   UNL     1       5.518  -5.743 -22.299  1.00  0.00     0.302 HD
ENDROOT
BRANCH   2   8
ATOM      8  C   UNL     1       4.949  -7.924 -20.965  1.00  0.00     0.063 A 
ATOM      9  C   UNL     1       4.381  -8.087 -19.720  1.00  0.00     0.016 A 
ATOM     10  C   UNL     1       6.230  -8.396 -21.174  1.00  0.00     0.016 A 
ATOM     11  C   UNL     1       5.079  -8.737 -18.720  1.00  0.00     0.001 A 
ATOM     12  C   UNL     1       6.922  -9.032 -20.164  1.00  0.00     0.001 A 
ATOM     13  C   UNL     1       6.340  -9.226 -18.955  1.00  0.00     0.000 A 
ENDBRANCH   2   8
TORSDOF 1
ENDMDL
MODEL 14
REMARK VINA RESULT:    -4.274     10.433     10.718
REMARK INTER + INTRA:          -4.560
REMARK INTER:                  -4.536
REMARK INTRA:                  -0.024
REMARK UNBOUND:                -0.036
REMARK SMILES NC(=[NH2+])c1ccccc1
REMARK SMILES IDX 3 1 2 2 1 3 4 8 5 9 9 10 6 11 8 12 7 13
REMARK H PARENT 3 4 3 5 1 6 1 7
ROOT
ATOM      1  N   UNL     1       3.118  -7.790 -22.553  1.00  0.00    -0.287 N 
ATOM      2  C   UNL     1       4.228  -7.275 -22.087  1.00  0.00     0.270 C 
ATOM      3  N   UNL     1       4.672  -6.151 -22.585  1.00  0.00    -0.287 N 
ATOM      4  H   UNL     1       2.571  -7.384 -23.319  1.00  0.00     0.302 HD
ATOM      5  H   UNL     1       2.731  -8.661 -22.201  1.00  0.00     0.302 HD
ATOM      6  H   UNL     1       4.195  -5.702 -23.364  1.00  0.00     0.302 HD
ATOM      7  H   UNL     1       5.516  -5.708 -22.257  1.00  0.00     0.302 HD
ENDROOT
BRANCH   2   8
ATOM      8  C   UNL     1       4.999  -7.971 -21.044  1.00  0.00     0.063 A 
ATOM      9  C   UNL     1       6.266  -8.448 -21.302  1.00  0.00     0.016 A 
ATOM     10  C   UNL     1       4.473  -8.143 -19.778  1.00  0.00     0.016 A 
ATOM     11  C   UNL     1       6.993  -9.060 -20.297  1.00  0.00     0.001 A 
ATOM     12  C   UNL     1       5.203  -8.766 -18.788  1.00  0.00     0.001 A 
ATOM     13  C   UNL     1       6.464  -9.196 -19.038  1.00  0.00     0.000 A 
ENDBRANCH   2   8
TORSDOF 1
ENDMDL
MODEL 15
REMARK VINA RESULT:    -4.272      9.633      9.983
REMARK INTER + INTRA:          -4.558
REMARK INTER:                  -4.535
REMARK INTRA:                  -0.023
REMARK UNBOUND:                -0.036
REMARK SMILES NC(=[NH2+])c1ccccc1
REMARK SMILES IDX 3 1 2 2 1 3 4 8 5 9 9 10 6 11 8 12 7 13
REMARK H PARENT 3 4 3 5 1 6 1 7
ROOT
ATOM      1  N   UNL     1       2.445  -6.548 -19.711  1.00  0.00    -0.287 N 
ATOM      2  C   UNL     1       2.803  -7.806 -19.764  1.00  0.00     0.270 C 
ATOM      3  N   UNL     1       1.888  -8.737 -19.685  1.00  0.00    -0.287 N 
ATOM      4  H   UNL     1       1.480  -6.228 -19.579  1.00  0.00     0.302 HD
ATOM      5  H   UNL     1       3.115  -5.787 -19.766  1.00  0.00     0.302 HD
ATOM      6  H   UNL     1       0.912  -8.495 -19.530  1.00  0.00     0.302 HD
ATOM      7  H   UNL     1       2.109  -9.719 -19.729  1.00  0.00     0.302 HD
ENDROOT
BRANCH   2   8
ATOM      8  C   UNL     1       4.223  -8.179 -19.866  1.00  0.00     0.063 A 
ATOM      9  C   UNL     1       4.885  -8.739 -18.794  1.00  0.00     0.016 A 
ATOM     10  C   UNL     1       4.917  -7.991 -21.046  1.00  0.00     0.016 A 
ATOM     11  C   UNL     1       6.207  -9.124 -18.921  1.00  0.00     0.001 A 
ATOM     12  C   UNL     1       6.238  -8.367 -21.157  1.00  0.00     0.001 A 
ATOM     13  C   UNL     1       6.871  -8.956 -20.112  1.00  0.00     0.000 A 
ENDBRANCH   2   8
TORSDOF 1
ENDMDL
MODEL 16
REMARK VINA RESULT:    -4.246      2.183      3.055
REMARK INTER + INTRA:          -4.531
REMARK INTER:                  -4.497
REMARK INTRA:                  -0.034
REMARK UNBOUND:                -0.036
REMARK SMILES NC(=[NH2+])c1ccccc1
REMARK SMILES IDX 3 1 2 2 1 3 4 8 5 9 9 10 6 11 8 12 7 13
REMARK H PARENT 3 4 3 5 1 6 1 7
ROOT
ATOM      1  N   UNL     1       0.012 -15.121 -14.515  1.00  0.00    -0.287 N 
ATOM      2  C   UNL     1      -0.913 -14.896 -15.413  1.00  0.00     0.270 C 
ATOM      3  N   UNL     1      -1.430 -15.903 -16.067  1.00  0.00    -0.287 N 
ATOM      4  H   UNL     1       0.395 -16.049 -14.301  1.00  0.00     0.302 HD
ATOM      5  H   UNL     1       0.447 -14.376 -13.980  1.00  0.00     0.302 HD
ATOM      6  H   UNL     1      -1.084 -16.849 -15.925  1.00  0.00     0.302 HD
ATOM      7  H   UNL     1      -2.151 -15.785 -16.762  1.00  0.00     0.302 HD
ENDROOT
BRANCH   2   8
ATOM      8  C   UNL     1      -1.343 -13.522 -15.720  1.00  0.00     0.063 A 
ATOM      9  C   UNL     1      -2.580 -13.277 -16.275  1.00  0.00     0.016 A 
ATOM     10  C   UNL     1      -0.519 -12.449 -15.441  1.00  0.00     0.016 A 
ATOM     11  C   UNL     1      -2.986 -11.977 -16.516  1.00  0.00     0.001 A 
ATOM     12  C   UNL     1      -0.929 -11.158 -15.698  1.00  0.00     0.001 A 
ATOM     13  C   UNL     1      -2.164 -10.922 -16.205  1.00  0.00     0.000 A 
ENDBRANCH   2   8
TORSDOF 1
ENDMDL
MODEL 17
REMARK VINA RESULT:    -4.191      9.672      9.955
REMARK INTER + INTRA:          -4.472
REMARK INTER:                  -4.447
REMARK INTRA:                  -0.025
REMARK UNBOUND:                -0.036
REMARK SMILES NC(=[NH2+])c1ccccc1
REMARK SMILES IDX 3 1 2 2 1 3 4 8 5 9 9 10 6 11 8 12 7 13
REMARK H PARENT 3 4 3 5 1 6 1 7
ROOT
ATOM      1  N   UNL     1       2.477  -6.528 -19.972  1.00  0.00    -0.287 N 
ATOM      2  C   UNL     1       2.822  -7.783 -19.824  1.00  0.00     0.270 C 
ATOM      3  N   UNL     1       1.906  -8.670 -19.537  1.00  0.00    -0.287 N 
ATOM      4  H   UNL     1       1.523  -6.174 -19.847  1.00  0.00     0.302 HD
ATOM      5  H   UNL     1       3.149  -5.800 -20.195  1.00  0.00     0.302 HD
ATOM      6  H   UNL     1       0.942  -8.389 -19.374  1.00  0.00     0.302 HD
ATOM      7  H   UNL     1       2.117  -9.648 -19.421  1.00  0.00     0.302 HD
ENDROOT
BRANCH   2   8
ATOM      8  C   UNL     1       4.231  -8.192 -19.936  1.00  0.00     0.063 A 
ATOM      9  C   UNL     1       4.925  -8.022 -21.115  1.00  0.00     0.016 A 
ATOM     10  C   UNL     1       4.893  -8.739 -18.854  1.00  0.00     0.016 A 
ATOM     11  C   UNL     1       6.261  -8.371 -21.190  1.00  0.00     0.001 A 
ATOM     12  C   UNL     1       6.222  -9.095 -18.944  1.00  0.00     0.001 A 
ATOM     13  C   UNL     1       6.908  -8.887 -20.094  1.00  0.00     0.000 A 
ENDBRANCH   2   8
TORSDOF 1
ENDMDL
MODEL 18
REMARK VINA RESULT:    -4.184      9.346      9.710
REMARK INTER + INTRA:          -4.465
REMARK INTER:                  -4.443
REMARK INTRA:                  -0.022
REMARK UNBOUND:                -0.036
REMARK SMILES NC(=[NH2+])c1ccccc1
REMARK SMILES IDX 3 1 2 2 1 3 4 8 5 9 9 10 6 11 8 12 7 13
REMARK H PARENT 3 4 3 5 1 6 1 7
ROOT
ATOM      1  N   UNL     1       6.918  -9.540 -19.215  1.00  0.00    -0.287 N 
ATOM      2  C   UNL     1       6.172  -8.573 -18.746  1.00  0.00     0.270 C 
ATOM      3  N   UNL     1       6.691  -7.708 -17.913  1.00  0.00    -0.287 N 
ATOM      4  H   UNL     1       7.897  -9.694 -18.950  1.00  0.00     0.302 HD
ATOM      5  H   UNL     1       6.564 -10.238 -19.862  1.00  0.00     0.302 HD
ATOM      6  H   UNL     1       7.649  -7.811 -17.587  1.00  0.00     0.302 HD
ATOM      7  H   UNL     1       6.162  -6.941 -17.530  1.00  0.00     0.302 HD
ENDROOT
BRANCH   2   8
ATOM      8  C   UNL     1       4.749  -8.477 -19.111  1.00  0.00     0.063 A 
ATOM      9  C   UNL     1       4.368  -7.992 -20.344  1.00  0.00     0.016 A 
ATOM     10  C   UNL     1       3.767  -8.888 -18.231  1.00  0.00     0.016 A 
ATOM     11  C   UNL     1       3.029  -7.950 -20.688  1.00  0.00     0.001 A 
ATOM     12  C   UNL     1       2.435  -8.830 -18.580  1.00  0.00     0.001 A 
ATOM     13  C   UNL     1       2.070  -8.391 -19.810  1.00  0.00     0.000 A 
ENDBRANCH   2   8
TORSDOF 1
ENDMDL
MODEL 19
REMARK VINA RESULT:    -4.157      9.957     10.358
REMARK INTER + INTRA:          -4.436
REMARK INTER:                  -4.415
REMARK INTRA:                  -0.021
REMARK UNBOUND:                -0.036
REMARK SMILES NC(=[NH2+])c1ccccc1
REMARK SMILES IDX 3 1 2 2 1 3 4 8 5 9 9 10 6 11 8 12 7 13
REMARK H PARENT 3 4 3 5 1 6 1 7
ROOT
ATOM      1  N   UNL     1       2.941  -9.104 -18.019  1.00  0.00    -0.287 N 
ATOM      2  C   UNL     1       4.007  -8.344 -18.021  1.00  0.00     0.270 C 
ATOM      3  N   UNL     1       4.186  -7.489 -17.049  1.00  0.00    -0.287 N 
ATOM      4  H   UNL     1       2.201  -9.059 -17.310  1.00  0.00     0.302 HD
ATOM      5  H   UNL     1       2.753  -9.784 -18.750  1.00  0.00     0.302 HD
ATOM      6  H   UNL     1       3.483  -7.371 -16.322  1.00  0.00     0.302 HD
ATOM      7  H   UNL     1       4.993  -6.888 -16.998  1.00  0.00     0.302 HD
ENDROOT
BRANCH   2   8
ATOM      8  C   UNL     1       4.976  -8.414 -19.126  1.00  0.00     0.063 A 
ATOM      9  C   UNL     1       6.141  -9.140 -18.999  1.00  0.00     0.016 A 
ATOM     10  C   UNL     1       4.729  -7.766 -20.321  1.00  0.00     0.016 A 
ATOM     11  C   UNL     1       7.020  -9.231 -20.063  1.00  0.00     0.001 A 
ATOM     12  C   UNL     1       5.619  -7.854 -21.370  1.00  0.00     0.001 A 
ATOM     13  C   UNL     1       6.742  -8.604 -21.252  1.00  0.00     0.000 A 
ENDBRANCH   2   8
TORSDOF 1
ENDMDL
MODEL 20
REMARK VINA RESULT:    -4.091      9.399      9.817
REMARK INTER + INTRA:          -4.366
REMARK INTER:                  -4.344
REMARK INTRA:                  -0.022
REMARK UNBOUND:                -0.036
REMARK SMILES NC(=[NH2+])c1ccccc1
REMARK SMILES IDX 3 1 2 2 1 3 4 8 5 9 9 10 6 11 8 12 7 13
REMARK H PARENT 3 4 3 5 1 6 1 7
ROOT
ATOM      1  N   UNL     1       6.909  -9.453 -19.169  1.00  0.00    -0.287 N 
ATOM      2  C   UNL     1       6.128  -8.503 -18.721  1.00  0.00     0.270 C 
ATOM      3  N   UNL     1       6.597  -7.641 -17.858  1.00  0.00    -0.287 N 
ATOM      4  H   UNL     1       7.878  -9.594 -18.864  1.00  0.00     0.302 HD
ATOM      5  H   UNL     1       6.594 -10.148 -19.839  1.00  0.00     0.302 HD
ATOM      6  H   UNL     1       7.542  -7.732 -17.492  1.00  0.00     0.302 HD
ATOM      7  H   UNL     1       6.041  -6.886 -17.488  1.00  0.00     0.302 HD
ENDROOT
BRANCH   2   8
ATOM      8  C   UNL     1       4.721  -8.425 -19.146  1.00  0.00     0.063 A 
ATOM      9  C   UNL     1       3.703  -8.784 -18.288  1.00  0.00     0.016 A 
ATOM     10  C   UNL     1       4.391  -7.973 -20.409  1.00  0.00     0.016 A 
ATOM     11  C   UNL     1       2.385  -8.663 -18.688  1.00  0.00     0.001 A 
ATOM     12  C   UNL     1       3.074  -7.868 -20.801  1.00  0.00     0.001 A 
ATOM     13  C   UNL     1       2.077  -8.183 -19.937  1.00  0.00     0.000 A 
ENDBRANCH   2   8
TORSDOF 1
ENDMDL
