REMARK SMILES NC(=[NH2+])c1ccccc1
REMARK SMILES IDX 3 1 2 2 1 3 4 8 5 9 9 10 6 11 8 12 7 13
REMARK H PARENT 3 4 3 5 1 6 1 7
ROOT
ATOM      1  N   UNL     1      -2.851 -15.100 -19.336  1.00  0.00    -0.287 N 
ATOM      2  C   UNL     1      -2.135 -15.641 -18.383  1.00  0.00     0.270 C 
ATOM      3  N   UNL     1      -1.753 -16.886 -18.496  1.00  0.00    -0.287 N 
ATOM      4  H   UNL     1      -3.169 -15.600 -20.173  1.00  0.00     0.302 HD
ATOM      5  H   UNL     1      -3.174 -14.138 -19.297  1.00  0.00     0.302 HD
ATOM      6  H   UNL     1      -2.050 -17.452 -19.288  1.00  0.00     0.302 HD
ATOM      7  H   UNL     1      -1.194 -17.347 -17.796  1.00  0.00     0.302 HD
ENDROOT
BRANCH   2   8
ATOM      8  C   UNL     1      -1.796 -14.876 -17.172  1.00  0.00     0.063 A 
ATOM      9  C   UNL     1      -1.951 -13.507 -17.135  1.00  0.00     0.016 A 
ATOM     10  C   UNL     1      -1.331 -15.519 -16.041  1.00  0.00     0.016 A 
ATOM     11  C   UNL     1      -1.670 -12.809 -15.975  1.00  0.00     0.001 A 
ATOM     12  C   UNL     1      -1.042 -14.811 -14.894  1.00  0.00     0.001 A 
ATOM     13  C   UNL     1      -1.237 -13.470 -14.852  1.00  0.00     0.000 A 
ENDBRANCH   2   8
TORSDOF 1
