MODEL 1
ATOM      1  C   UNL     1      27.770  -2.147  52.845  1.00  0.00    +0.000 A 
ATOM      2  C   UNL     1      29.115  -1.988  53.175  1.00  0.00    +0.000 A 
ATOM      3  C   UNL     1      29.592  -0.741  53.583  1.00  0.00    +0.000 A 
ATOM      4  C   UNL     1      28.723   0.361  53.664  1.00  0.00    +0.000 A 
ATOM      5  C   UNL     1      29.137   1.629  54.065  1.00  0.00    +0.000 A 
ATOM      6  N   UNL     1      28.306   2.692  54.144  1.00  0.00    +0.000 NA
ATOM      7  N   UNL     1      26.997   2.538  53.823  1.00  0.00    +0.000 NA
ATOM      8  C   UNL     1      26.551   1.325  53.429  1.00  0.00    +0.000 A 
ATOM      9  C   UNL     1      27.369   0.202  53.332  1.00  0.00    +0.000 A 
ATOM     10  C   UNL     1      26.898  -1.059  52.922  1.00  0.00    +0.000 A 
ENDMDL
