MODEL 1
REMARK VINA RESULT:    -5.952      0.000      0.000
REMARK INTER + INTRA:          -5.952
REMARK INTER:                  -5.952
REMARK INTRA:                   0.000
REMARK UNBOUND:                 0.000
REMARK  Name = 
REMARK  0 active torsions:
REMARK  status: ('A' for Active; 'I' for Inactive)
REMARK                            x       y       z     vdW  Elec       q    Type
REMARK                         _______ _______ _______ _____ _____    ______ ____
ROOT
ATOM      1  C   UNL     1      27.770  -2.147  52.845  1.00  0.00    +0.000 A 
ATOM      2  C   UNL     1      29.115  -1.988  53.175  1.00  0.00    +0.000 A 
ATOM      3  C   UNL     1      29.592  -0.741  53.583  1.00  0.00    +0.000 A 
ATOM      4  C   UNL     1      28.723   0.361  53.664  1.00  0.00    +0.000 A 
ATOM      5  C   UNL     1      29.137   1.629  54.065  1.00  0.00    +0.000 A 
ATOM      6  N   UNL     1      28.306   2.692  54.144  1.00  0.00    +0.000 NA
ATOM      7  N   UNL     1      26.997   2.538  53.823  1.00  0.00    +0.000 NA
ATOM      8  C   UNL     1      26.551   1.325  53.429  1.00  0.00    +0.000 A 
ATOM      9  C   UNL     1      27.369   0.202  53.332  1.00  0.00    +0.000 A 
ATOM     10  C   UNL     1      26.898  -1.059  52.922  1.00  0.00    +0.000 A 
ENDROOT
TORSDOF 0
ENDMDL
MODEL 2
REMARK VINA RESULT:    -5.945      0.077      2.036
REMARK INTER + INTRA:          -5.945
REMARK INTER:                  -5.945
REMARK INTRA:                   0.000
REMARK UNBOUND:                 0.000
REMARK  Name = 
REMARK  0 active torsions:
REMARK  status: ('A' for Active; 'I' for Inactive)
REMARK                            x       y       z     vdW  Elec       q    Type
REMARK                         _______ _______ _______ _____ _____    ______ ____
ROOT
ATOM      1  C   UNL     1      29.124  -2.032  53.226  1.00  0.00    +0.000 A 
ATOM      2  C   UNL     1      27.793  -2.159  52.831  1.00  0.00    +0.000 A 
ATOM      3  C   UNL     1      26.942  -1.054  52.877  1.00  0.00    +0.000 A 
ATOM      4  C   UNL     1      27.418   0.193  53.319  1.00  0.00    +0.000 A 
ATOM      5  C   UNL     1      26.619   1.333  53.387  1.00  0.00    +0.000 A 
ATOM      6  N   UNL     1      27.072   2.533  53.812  1.00  0.00    +0.000 NA
ATOM      7  N   UNL     1      28.367   2.657  54.196  1.00  0.00    +0.000 NA
ATOM      8  C   UNL     1      29.178   1.578  54.147  1.00  0.00    +0.000 A 
ATOM      9  C   UNL     1      28.757   0.322  53.717  1.00  0.00    +0.000 A 
ATOM     10  C   UNL     1      29.607  -0.798  53.667  1.00  0.00    +0.000 A 
ENDROOT
TORSDOF 0
ENDMDL
MODEL 3
REMARK VINA RESULT:    -5.668      2.588      3.511
REMARK INTER + INTRA:          -5.668
REMARK INTER:                  -5.668
REMARK INTRA:                   0.000
REMARK UNBOUND:                 0.000
REMARK  Name = 
REMARK  0 active torsions:
REMARK  status: ('A' for Active; 'I' for Inactive)
REMARK                            x       y       z     vdW  Elec       q    Type
REMARK                         _______ _______ _______ _____ _____    ______ ____
ROOT
ATOM      1  C   UNL     1      26.943   1.898  52.814  1.00  0.00    +0.000 A 
ATOM      2  C   UNL     1      28.208   2.137  53.348  1.00  0.00    +0.000 A 
ATOM      3  C   UNL     1      29.066   1.069  53.617  1.00  0.00    +0.000 A 
ATOM      4  C   UNL     1      28.663  -0.251  53.351  1.00  0.00    +0.000 A 
ATOM      5  C   UNL     1      29.473  -1.358  53.597  1.00  0.00    +0.000 A 
ATOM      6  N   UNL     1      29.090  -2.629  53.343  1.00  0.00    +0.000 NA
ATOM      7  N   UNL     1      27.859  -2.862  52.823  1.00  0.00    +0.000 NA
ATOM      8  C   UNL     1      27.040  -1.818  52.569  1.00  0.00    +0.000 A 
ATOM      9  C   UNL     1      27.390  -0.492  52.813  1.00  0.00    +0.000 A 
ATOM     10  C   UNL     1      26.533   0.591  52.546  1.00  0.00    +0.000 A 
ENDROOT
TORSDOF 0
ENDMDL
MODEL 4
REMARK VINA RESULT:    -5.229      4.539      5.785
REMARK INTER + INTRA:          -5.229
REMARK INTER:                  -5.229
REMARK INTRA:                   0.000
REMARK UNBOUND:                 0.000
REMARK  Name = 
REMARK  0 active torsions:
REMARK  status: ('A' for Active; 'I' for Inactive)
REMARK                            x       y       z     vdW  Elec       q    Type
REMARK                         _______ _______ _______ _____ _____    ______ ____
ROOT
ATOM      1  C   UNL     1      20.733  -0.397  53.389  1.00  0.00    +0.000 A 
ATOM      2  C   UNL     1      21.459   0.214  52.368  1.00  0.00    +0.000 A 
ATOM      3  C   UNL     1      22.852   0.276  52.441  1.00  0.00    +0.000 A 
ATOM      4  C   UNL     1      23.531  -0.275  53.543  1.00  0.00    +0.000 A 
ATOM      5  C   UNL     1      24.918  -0.246  53.674  1.00  0.00    +0.000 A 
ATOM      6  N   UNL     1      25.575  -0.773  54.730  1.00  0.00    +0.000 NA
ATOM      7  N   UNL     1      24.869  -1.367  55.724  1.00  0.00    +0.000 NA
ATOM      8  C   UNL     1      23.521  -1.419  55.639  1.00  0.00    +0.000 A 
ATOM      9  C   UNL     1      22.800  -0.889  54.571  1.00  0.00    +0.000 A 
ATOM     10  C   UNL     1      21.397  -0.947  54.487  1.00  0.00    +0.000 A 
ENDROOT
TORSDOF 0
ENDMDL
MODEL 5
REMARK VINA RESULT:    -5.226      4.784      5.978
REMARK INTER + INTRA:          -5.226
REMARK INTER:                  -5.226
REMARK INTRA:                   0.000
REMARK UNBOUND:                 0.000
REMARK  Name = 
REMARK  0 active torsions:
REMARK  status: ('A' for Active; 'I' for Inactive)
REMARK                            x       y       z     vdW  Elec       q    Type
REMARK                         _______ _______ _______ _____ _____    ______ ____
ROOT
ATOM      1  C   UNL     1      22.986   1.182  51.492  1.00  0.00    +0.000 A 
ATOM      2  C   UNL     1      24.258   1.184  52.061  1.00  0.00    +0.000 A 
ATOM      3  C   UNL     1      24.508   0.442  53.217  1.00  0.00    +0.000 A 
ATOM      4  C   UNL     1      23.482  -0.311  53.814  1.00  0.00    +0.000 A 
ATOM      5  C   UNL     1      23.668  -1.071  54.967  1.00  0.00    +0.000 A 
ATOM      6  N   UNL     1      22.686  -1.796  55.546  1.00  0.00    +0.000 NA
ATOM      7  N   UNL     1      21.447  -1.798  54.992  1.00  0.00    +0.000 NA
ATOM      8  C   UNL     1      21.221  -1.075  53.874  1.00  0.00    +0.000 A 
ATOM      9  C   UNL     1      22.201  -0.313  53.242  1.00  0.00    +0.000 A 
ATOM     10  C   UNL     1      21.959   0.437  52.077  1.00  0.00    +0.000 A 
ENDROOT
TORSDOF 0
ENDMDL
MODEL 6
REMARK VINA RESULT:    -5.218      4.879      6.402
REMARK INTER + INTRA:          -5.218
REMARK INTER:                  -5.218
REMARK INTRA:                   0.000
REMARK UNBOUND:                 0.000
REMARK  Name = 
REMARK  0 active torsions:
REMARK  status: ('A' for Active; 'I' for Inactive)
REMARK                            x       y       z     vdW  Elec       q    Type
REMARK                         _______ _______ _______ _____ _____    ______ ____
ROOT
ATOM      1  C   UNL     1      23.936   1.257  51.901  1.00  0.00    +0.000 A 
ATOM      2  C   UNL     1      22.621   1.176  51.446  1.00  0.00    +0.000 A 
ATOM      3  C   UNL     1      21.689   0.398  52.134  1.00  0.00    +0.000 A 
ATOM      4  C   UNL     1      22.067  -0.309  53.289  1.00  0.00    +0.000 A 
ATOM      5  C   UNL     1      21.184  -1.102  54.019  1.00  0.00    +0.000 A 
ATOM      6  N   UNL     1      21.543  -1.784  55.129  1.00  0.00    +0.000 NA
ATOM      7  N   UNL     1      22.822  -1.706  55.573  1.00  0.00    +0.000 NA
ATOM      8  C   UNL     1      23.713  -0.949  54.896  1.00  0.00    +0.000 A 
ATOM      9  C   UNL     1      23.390  -0.229  53.748  1.00  0.00    +0.000 A 
ATOM     10  C   UNL     1      24.322   0.558  53.047  1.00  0.00    +0.000 A 
ENDROOT
TORSDOF 0
ENDMDL
MODEL 7
REMARK VINA RESULT:    -5.200      2.505      4.004
REMARK INTER + INTRA:          -5.200
REMARK INTER:                  -5.200
REMARK INTRA:                   0.000
REMARK UNBOUND:                 0.000
REMARK  Name = 
REMARK  0 active torsions:
REMARK  status: ('A' for Active; 'I' for Inactive)
REMARK                            x       y       z     vdW  Elec       q    Type
REMARK                         _______ _______ _______ _____ _____    ______ ____
ROOT
ATOM      1  C   UNL     1      26.856   2.114  52.751  1.00  0.00    +0.000 A 
ATOM      2  C   UNL     1      25.749   1.389  52.313  1.00  0.00    +0.000 A 
ATOM      3  C   UNL     1      25.799  -0.006  52.273  1.00  0.00    +0.000 A 
ATOM      4  C   UNL     1      26.961  -0.688  52.674  1.00  0.00    +0.000 A 
ATOM      5  C   UNL     1      27.073  -2.076  52.658  1.00  0.00    +0.000 A 
ATOM      6  N   UNL     1      28.188  -2.736  53.041  1.00  0.00    +0.000 NA
ATOM      7  N   UNL     1      29.265  -2.030  53.468  1.00  0.00    +0.000 NA
ATOM      8  C   UNL     1      29.202  -0.681  53.500  1.00  0.00    +0.000 A 
ATOM      9  C   UNL     1      28.075   0.042  53.115  1.00  0.00    +0.000 A 
ATOM     10  C   UNL     1      28.015   1.447  53.151  1.00  0.00    +0.000 A 
ENDROOT
TORSDOF 0
ENDMDL
MODEL 8
REMARK VINA RESULT:    -5.181      4.548      5.955
REMARK INTER + INTRA:          -5.181
REMARK INTER:                  -5.181
REMARK INTRA:                   0.000
REMARK UNBOUND:                 0.000
REMARK  Name = 
REMARK  0 active torsions:
REMARK  status: ('A' for Active; 'I' for Inactive)
REMARK                            x       y       z     vdW  Elec       q    Type
REMARK                         _______ _______ _______ _____ _____    ______ ____
ROOT
ATOM      1  C   UNL     1      21.353   0.361  52.571  1.00  0.00    +0.000 A 
ATOM      2  C   UNL     1      20.682  -0.237  53.637  1.00  0.00    +0.000 A 
ATOM      3  C   UNL     1      21.405  -0.835  54.670  1.00  0.00    +0.000 A 
ATOM      4  C   UNL     1      22.811  -0.839  54.645  1.00  0.00    +0.000 A 
ATOM      5  C   UNL     1      23.588  -1.419  55.646  1.00  0.00    +0.000 A 
ATOM      6  N   UNL     1      24.940  -1.426  55.626  1.00  0.00    +0.000 NA
ATOM      7  N   UNL     1      25.592  -0.843  54.589  1.00  0.00    +0.000 NA
ATOM      8  C   UNL     1      24.879  -0.269  53.596  1.00  0.00    +0.000 A 
ATOM      9  C   UNL     1      23.486  -0.237  53.573  1.00  0.00    +0.000 A 
ATOM     10  C   UNL     1      22.749   0.363  52.536  1.00  0.00    +0.000 A 
ENDROOT
TORSDOF 0
ENDMDL
MODEL 9
REMARK VINA RESULT:    -5.135      1.416      2.919
REMARK INTER + INTRA:          -5.135
REMARK INTER:                  -5.135
REMARK INTRA:                   0.000
REMARK UNBOUND:                 0.000
REMARK  Name = 
REMARK  0 active torsions:
REMARK  status: ('A' for Active; 'I' for Inactive)
REMARK                            x       y       z     vdW  Elec       q    Type
REMARK                         _______ _______ _______ _____ _____    ______ ____
ROOT
ATOM      1  C   UNL     1      25.096  -0.536  53.195  1.00  0.00    +0.000 A 
ATOM      2  C   UNL     1      24.764   0.818  53.171  1.00  0.00    +0.000 A 
ATOM      3  C   UNL     1      25.767   1.786  53.245  1.00  0.00    +0.000 A 
ATOM      4  C   UNL     1      27.117   1.404  53.343  1.00  0.00    +0.000 A 
ATOM      5  C   UNL     1      28.163   2.321  53.420  1.00  0.00    +0.000 A 
ATOM      6  N   UNL     1      29.462   1.960  53.515  1.00  0.00    +0.000 NA
ATOM      7  N   UNL     1      29.785   0.642  53.538  1.00  0.00    +0.000 NA
ATOM      8  C   UNL     1      28.803  -0.282  53.466  1.00  0.00    +0.000 A 
ATOM      9  C   UNL     1      27.452   0.042  53.367  1.00  0.00    +0.000 A 
ATOM     10  C   UNL     1      26.433  -0.925  53.292  1.00  0.00    +0.000 A 
ENDROOT
TORSDOF 0
ENDMDL
MODEL 10
REMARK VINA RESULT:    -5.115      1.372      2.742
REMARK INTER + INTRA:          -5.115
REMARK INTER:                  -5.115
REMARK INTRA:                   0.000
REMARK UNBOUND:                 0.000
REMARK  Name = 
REMARK  0 active torsions:
REMARK  status: ('A' for Active; 'I' for Inactive)
REMARK                            x       y       z     vdW  Elec       q    Type
REMARK                         _______ _______ _______ _____ _____    ______ ____
ROOT
ATOM      1  C   UNL     1      24.835   0.658  53.221  1.00  0.00    +0.000 A 
ATOM      2  C   UNL     1      25.234  -0.677  53.173  1.00  0.00    +0.000 A 
ATOM      3  C   UNL     1      26.589  -1.005  53.240  1.00  0.00    +0.000 A 
ATOM      4  C   UNL     1      27.560   0.005  53.357  1.00  0.00    +0.000 A 
ATOM      5  C   UNL     1      28.926  -0.257  53.429  1.00  0.00    +0.000 A 
ATOM      6  N   UNL     1      29.864   0.710  53.540  1.00  0.00    +0.000 NA
ATOM      7  N   UNL     1      29.476   2.009  53.587  1.00  0.00    +0.000 NA
ATOM      8  C   UNL     1      28.161   2.310  53.520  1.00  0.00    +0.000 A 
ATOM      9  C   UNL     1      27.159   1.349  53.405  1.00  0.00    +0.000 A 
ATOM     10  C   UNL     1      25.792   1.669  53.336  1.00  0.00    +0.000 A 
ENDROOT
TORSDOF 0
ENDMDL
