MODEL 1
REMARK VINA RESULT:    -4.124      0.000      0.000
REMARK INTER + INTRA:          -4.124
REMARK INTER:                  -4.124
REMARK INTRA:                   0.000
REMARK UNBOUND:                 0.000
REMARK SMILES O=C1Nc2ccccc2C1=O
REMARK SMILES IDX 11 1 1 2 3 3 9 4 4 5 10 6 2 7 8 8 5 9 7 10 6 11
REMARK H PARENT 3 12
ROOT
ATOM      1  O   UNL     1      18.573  42.920  34.421  1.00  0.00    -0.283 OA
ATOM      2  O   UNL     1      21.272  43.355  33.540  1.00  0.00    -0.265 OA
ATOM      3  N   UNL     1      20.875  45.514  34.431  1.00  0.00    -0.318 N 
ATOM      4  C   UNL     1      18.713  45.215  35.152  1.00  0.00     0.051 A 
ATOM      5  C   UNL     1      19.775  46.108  35.054  1.00  0.00     0.053 A 
ATOM      6  C   UNL     1      19.167  43.962  34.551  1.00  0.00     0.252 C 
ATOM      7  C   UNL     1      20.601  44.202  34.086  1.00  0.00     0.296 C 
ATOM      8  C   UNL     1      17.508  45.552  35.727  1.00  0.00     0.014 A 
ATOM      9  C   UNL     1      19.672  47.397  35.533  1.00  0.00     0.027 A 
ATOM     10  C   UNL     1      17.388  46.854  36.217  1.00  0.00     0.001 A 
ATOM     11  C   UNL     1      18.459  47.768  36.122  1.00  0.00     0.002 A 
ATOM     12  H   UNL     1      21.751  45.995  34.261  1.00  0.00     0.170 HD
ENDROOT
TORSDOF 0
ENDMDL
MODEL 2
REMARK VINA RESULT:    -4.030      9.168     10.075
REMARK INTER + INTRA:          -4.030
REMARK INTER:                  -4.030
REMARK INTRA:                   0.000
REMARK UNBOUND:                 0.000
REMARK SMILES O=C1Nc2ccccc2C1=O
REMARK SMILES IDX 11 1 1 2 3 3 9 4 4 5 10 6 2 7 8 8 5 9 7 10 6 11
REMARK H PARENT 3 12
ROOT
ATOM      1  O   UNL     1      20.480  54.569  41.554  1.00  0.00    -0.283 OA
ATOM      2  O   UNL     1      21.017  52.113  42.944  1.00  0.00    -0.265 OA
ATOM      3  N   UNL     1      19.073  51.408  41.788  1.00  0.00    -0.318 N 
ATOM      4  C   UNL     1      18.602  53.351  40.655  1.00  0.00     0.051 A 
ATOM      5  C   UNL     1      18.207  52.038  40.892  1.00  0.00     0.053 A 
ATOM      6  C   UNL     1      19.805  53.574  41.455  1.00  0.00     0.252 C 
ATOM      7  C   UNL     1      20.082  52.265  42.189  1.00  0.00     0.296 C 
ATOM      8  C   UNL     1      17.917  54.193  39.808  1.00  0.00     0.014 A 
ATOM      9  C   UNL     1      17.091  51.506  40.281  1.00  0.00     0.027 A 
ATOM     10  C   UNL     1      16.784  53.669  39.182  1.00  0.00     0.001 A 
ATOM     11  C   UNL     1      16.375  52.339  39.415  1.00  0.00     0.002 A 
ATOM     12  H   UNL     1      18.962  50.448  42.094  1.00  0.00     0.170 HD
ENDROOT
TORSDOF 0
ENDMDL
MODEL 3
REMARK VINA RESULT:    -3.744      9.455     10.602
REMARK INTER + INTRA:          -3.744
REMARK INTER:                  -3.744
REMARK INTRA:                   0.000
REMARK UNBOUND:                 0.000
REMARK SMILES O=C1Nc2ccccc2C1=O
REMARK SMILES IDX 11 1 1 2 3 3 9 4 4 5 10 6 2 7 8 8 5 9 7 10 6 11
REMARK H PARENT 3 12
ROOT
ATOM      1  O   UNL     1      20.520  50.652  42.482  1.00  0.00    -0.283 OA
ATOM      2  O   UNL     1      21.659  52.947  43.782  1.00  0.00    -0.265 OA
ATOM      3  N   UNL     1      19.637  53.955  43.068  1.00  0.00    -0.318 N 
ATOM      4  C   UNL     1      18.685  52.147  42.016  1.00  0.00     0.051 A 
ATOM      5  C   UNL     1      18.529  53.487  42.358  1.00  0.00     0.053 A 
ATOM      6  C   UNL     1      19.981  51.730  42.546  1.00  0.00     0.252 C 
ATOM      7  C   UNL     1      20.579  52.954  43.234  1.00  0.00     0.296 C 
ATOM      8  C   UNL     1      17.733  51.444  41.310  1.00  0.00     0.014 A 
ATOM      9  C   UNL     1      17.398  54.189  42.001  1.00  0.00     0.027 A 
ATOM     10  C   UNL     1      16.581  52.143  40.941  1.00  0.00     0.001 A 
ATOM     11  C   UNL     1      16.414  53.501  41.283  1.00  0.00     0.002 A 
ATOM     12  H   UNL     1      19.723  54.905  43.410  1.00  0.00     0.170 HD
ENDROOT
TORSDOF 0
ENDMDL
MODEL 4
REMARK VINA RESULT:    -3.732      8.363      9.446
REMARK INTER + INTRA:          -3.732
REMARK INTER:                  -3.732
REMARK INTRA:                   0.000
REMARK UNBOUND:                 0.000
REMARK SMILES O=C1Nc2ccccc2C1=O
REMARK SMILES IDX 11 1 1 2 3 3 9 4 4 5 10 6 2 7 8 8 5 9 7 10 6 11
REMARK H PARENT 3 12
ROOT
ATOM      1  O   UNL     1      16.624  50.418  40.510  1.00  0.00    -0.283 OA
ATOM      2  O   UNL     1      16.858  51.889  38.054  1.00  0.00    -0.265 OA
ATOM      3  N   UNL     1      18.392  53.161  39.335  1.00  0.00    -0.318 N 
ATOM      4  C   UNL     1      18.238  52.016  41.323  1.00  0.00     0.051 A 
ATOM      5  C   UNL     1      18.841  53.078  40.655  1.00  0.00     0.053 A 
ATOM      6  C   UNL     1      17.343  51.375  40.361  1.00  0.00     0.252 C 
ATOM      7  C   UNL     1      17.474  52.162  39.060  1.00  0.00     0.296 C 
ATOM      8  C   UNL     1      18.507  51.715  42.640  1.00  0.00     0.014 A 
ATOM      9  C   UNL     1      19.751  53.897  41.290  1.00  0.00     0.027 A 
ATOM     10  C   UNL     1      19.428  52.536  43.296  1.00  0.00     0.001 A 
ATOM     11  C   UNL     1      20.044  53.615  42.628  1.00  0.00     0.002 A 
ATOM     12  H   UNL     1      18.708  53.866  38.679  1.00  0.00     0.170 HD
ENDROOT
TORSDOF 0
ENDMDL
MODEL 5
REMARK VINA RESULT:    -3.708      9.522     10.769
REMARK INTER + INTRA:          -3.708
REMARK INTER:                  -3.708
REMARK INTRA:                   0.000
REMARK UNBOUND:                 0.000
REMARK SMILES O=C1Nc2ccccc2C1=O
REMARK SMILES IDX 11 1 1 2 3 3 9 4 4 5 10 6 2 7 8 8 5 9 7 10 6 11
REMARK H PARENT 3 12
ROOT
ATOM      1  O   UNL     1      20.380  54.484  42.700  1.00  0.00    -0.283 OA
ATOM      2  O   UNL     1      18.308  53.803  40.830  1.00  0.00    -0.265 OA
ATOM      3  N   UNL     1      18.949  51.598  41.413  1.00  0.00    -0.318 N 
ATOM      4  C   UNL     1      20.616  52.093  42.917  1.00  0.00     0.051 A 
ATOM      5  C   UNL     1      19.909  51.076  42.282  1.00  0.00     0.053 A 
ATOM      6  C   UNL     1      20.067  53.353  42.419  1.00  0.00     0.252 C 
ATOM      7  C   UNL     1      18.967  52.982  41.428  1.00  0.00     0.296 C 
ATOM      8  C   UNL     1      21.621  51.846  43.825  1.00  0.00     0.014 A 
ATOM      9  C   UNL     1      20.186  49.749  42.534  1.00  0.00     0.027 A 
ATOM     10  C   UNL     1      21.914  50.506  44.090  1.00  0.00     0.001 A 
ATOM     11  C   UNL     1      21.203  49.467  43.452  1.00  0.00     0.002 A 
ATOM     12  H   UNL     1      18.328  51.025  40.854  1.00  0.00     0.170 HD
ENDROOT
TORSDOF 0
ENDMDL
MODEL 6
REMARK VINA RESULT:    -3.675     10.519     10.900
REMARK INTER + INTRA:          -3.675
REMARK INTER:                  -3.675
REMARK INTRA:                   0.000
REMARK UNBOUND:                 0.000
REMARK SMILES O=C1Nc2ccccc2C1=O
REMARK SMILES IDX 11 1 1 2 3 3 9 4 4 5 10 6 2 7 8 8 5 9 7 10 6 11
REMARK H PARENT 3 12
ROOT
ATOM      1  O   UNL     1      20.474  54.354  42.174  1.00  0.00    -0.283 OA
ATOM      2  O   UNL     1      22.006  52.415  43.639  1.00  0.00    -0.265 OA
ATOM      3  N   UNL     1      19.938  51.261  43.647  1.00  0.00    -0.318 N 
ATOM      4  C   UNL     1      18.670  52.782  42.480  1.00  0.00     0.051 A 
ATOM      5  C   UNL     1      18.674  51.551  43.128  1.00  0.00     0.053 A 
ATOM      6  C   UNL     1      20.027  53.314  42.592  1.00  0.00     0.252 C 
ATOM      7  C   UNL     1      20.833  52.278  43.371  1.00  0.00     0.296 C 
ATOM      8  C   UNL     1      17.546  53.304  41.880  1.00  0.00     0.014 A 
ATOM      9  C   UNL     1      17.533  50.780  43.204  1.00  0.00     0.027 A 
ATOM     10  C   UNL     1      16.382  52.535  41.949  1.00  0.00     0.001 A 
ATOM     11  C   UNL     1      16.375  51.285  42.604  1.00  0.00     0.002 A 
ATOM     12  H   UNL     1      20.152  50.411  44.156  1.00  0.00     0.170 HD
ENDROOT
TORSDOF 0
ENDMDL
MODEL 7
REMARK VINA RESULT:    -3.675     12.136     13.052
REMARK INTER + INTRA:          -3.675
REMARK INTER:                  -3.675
REMARK INTRA:                   0.000
REMARK UNBOUND:                 0.000
REMARK SMILES O=C1Nc2ccccc2C1=O
REMARK SMILES IDX 11 1 1 2 3 3 9 4 4 5 10 6 2 7 8 8 5 9 7 10 6 11
REMARK H PARENT 3 12
ROOT
ATOM      1  O   UNL     1      28.047  50.121  45.493  1.00  0.00    -0.283 OA
ATOM      2  O   UNL     1      26.862  47.521  45.194  1.00  0.00    -0.265 OA
ATOM      3  N   UNL     1      24.905  48.808  44.835  1.00  0.00    -0.318 N 
ATOM      4  C   UNL     1      25.808  50.909  45.067  1.00  0.00     0.051 A 
ATOM      5  C   UNL     1      24.649  50.180  44.817  1.00  0.00     0.053 A 
ATOM      6  C   UNL     1      26.879  49.933  45.256  1.00  0.00     0.252 C 
ATOM      7  C   UNL     1      26.241  48.556  45.095  1.00  0.00     0.296 C 
ATOM      8  C   UNL     1      25.828  52.286  45.105  1.00  0.00     0.014 A 
ATOM      9  C   UNL     1      23.443  50.810  44.594  1.00  0.00     0.027 A 
ATOM     10  C   UNL     1      24.613  52.938  44.881  1.00  0.00     0.001 A 
ATOM     11  C   UNL     1      23.433  52.209  44.626  1.00  0.00     0.002 A 
ATOM     12  H   UNL     1      24.195  48.103  44.676  1.00  0.00     0.170 HD
ENDROOT
TORSDOF 0
ENDMDL
MODEL 8
REMARK VINA RESULT:    -3.671      7.887      9.354
REMARK INTER + INTRA:          -3.671
REMARK INTER:                  -3.671
REMARK INTRA:                   0.000
REMARK UNBOUND:                 0.000
REMARK SMILES O=C1Nc2ccccc2C1=O
REMARK SMILES IDX 11 1 1 2 3 3 9 4 4 5 10 6 2 7 8 8 5 9 7 10 6 11
REMARK H PARENT 3 12
ROOT
ATOM      1  O   UNL     1      17.493  54.037  38.444  1.00  0.00    -0.283 OA
ATOM      2  O   UNL     1      16.375  51.521  37.623  1.00  0.00    -0.265 OA
ATOM      3  N   UNL     1      17.219  50.825  39.724  1.00  0.00    -0.318 N 
ATOM      4  C   UNL     1      18.130  52.816  40.425  1.00  0.00     0.051 A 
ATOM      5  C   UNL     1      17.910  51.481  40.746  1.00  0.00     0.053 A 
ATOM      6  C   UNL     1      17.536  53.029  39.106  1.00  0.00     0.252 C 
ATOM      7  C   UNL     1      16.945  51.688  38.679  1.00  0.00     0.296 C 
ATOM      8  C   UNL     1      18.791  53.685  41.264  1.00  0.00     0.014 A 
ATOM      9  C   UNL     1      18.353  50.951  41.940  1.00  0.00     0.027 A 
ATOM     10  C   UNL     1      19.246  53.163  42.477  1.00  0.00     0.001 A 
ATOM     11  C   UNL     1      19.029  51.810  42.813  1.00  0.00     0.002 A 
ATOM     12  H   UNL     1      16.960  49.846  39.762  1.00  0.00     0.170 HD
ENDROOT
TORSDOF 0
ENDMDL
MODEL 9
REMARK VINA RESULT:    -3.650      2.307      3.294
REMARK INTER + INTRA:          -3.650
REMARK INTER:                  -3.650
REMARK INTRA:                   0.000
REMARK UNBOUND:                 0.000
REMARK SMILES O=C1Nc2ccccc2C1=O
REMARK SMILES IDX 11 1 1 2 3 3 9 4 4 5 10 6 2 7 8 8 5 9 7 10 6 11
REMARK H PARENT 3 12
ROOT
ATOM      1  O   UNL     1      20.204  48.279  34.882  1.00  0.00    -0.283 OA
ATOM      2  O   UNL     1      20.426  45.436  34.529  1.00  0.00    -0.265 OA
ATOM      3  N   UNL     1      18.650  45.426  36.097  1.00  0.00    -0.318 N 
ATOM      4  C   UNL     1      18.435  47.693  36.413  1.00  0.00     0.051 A 
ATOM      5  C   UNL     1      17.954  46.436  36.766  1.00  0.00     0.053 A 
ATOM      6  C   UNL     1      19.511  47.471  35.450  1.00  0.00     0.252 C 
ATOM      7  C   UNL     1      19.621  45.959  35.268  1.00  0.00     0.296 C 
ATOM      8  C   UNL     1      17.920  48.860  36.934  1.00  0.00     0.014 A 
ATOM      9  C   UNL     1      16.924  46.292  37.671  1.00  0.00     0.027 A 
ATOM     10  C   UNL     1      16.875  48.731  37.851  1.00  0.00     0.001 A 
ATOM     11  C   UNL     1      16.381  47.460  38.216  1.00  0.00     0.002 A 
ATOM     12  H   UNL     1      18.455  44.439  36.214  1.00  0.00     0.170 HD
ENDROOT
TORSDOF 0
ENDMDL
MODEL 10
REMARK VINA RESULT:    -3.582     11.486     12.070
REMARK INTER + INTRA:          -3.582
REMARK INTER:                  -3.582
REMARK INTRA:                   0.000
REMARK UNBOUND:                 0.000
REMARK SMILES O=C1Nc2ccccc2C1=O
REMARK SMILES IDX 11 1 1 2 3 3 9 4 4 5 10 6 2 7 8 8 5 9 7 10 6 11
REMARK H PARENT 3 12
ROOT
ATOM      1  O   UNL     1      22.988  48.090  44.866  1.00  0.00    -0.283 OA
ATOM      2  O   UNL     1      25.614  47.053  44.338  1.00  0.00    -0.265 OA
ATOM      3  N   UNL     1      26.171  49.356  44.326  1.00  0.00    -0.318 N 
ATOM      4  C   UNL     1      24.088  50.233  44.746  1.00  0.00     0.051 A 
ATOM      5  C   UNL     1      25.428  50.524  44.510  1.00  0.00     0.053 A 
ATOM      6  C   UNL     1      23.967  48.777  44.711  1.00  0.00     0.252 C 
ATOM      7  C   UNL     1      25.366  48.235  44.431  1.00  0.00     0.296 C 
ATOM      8  C   UNL     1      23.140  51.210  44.960  1.00  0.00     0.014 A 
ATOM      9  C   UNL     1      25.881  51.826  44.477  1.00  0.00     0.027 A 
ATOM     10  C   UNL     1      23.584  52.533  44.928  1.00  0.00     0.001 A 
ATOM     11  C   UNL     1      24.941  52.839  44.690  1.00  0.00     0.002 A 
ATOM     12  H   UNL     1      27.167  49.349  44.141  1.00  0.00     0.170 HD
ENDROOT
TORSDOF 0
ENDMDL
MODEL 11
REMARK VINA RESULT:    -3.529      9.554     10.778
REMARK INTER + INTRA:          -3.529
REMARK INTER:                  -3.529
REMARK INTRA:                   0.000
REMARK UNBOUND:                 0.000
REMARK SMILES O=C1Nc2ccccc2C1=O
REMARK SMILES IDX 11 1 1 2 3 3 9 4 4 5 10 6 2 7 8 8 5 9 7 10 6 11
REMARK H PARENT 3 12
ROOT
ATOM      1  O   UNL     1      16.624  51.725  40.943  1.00  0.00    -0.283 OA
ATOM      2  O   UNL     1      16.375  54.529  41.512  1.00  0.00    -0.265 OA
ATOM      3  N   UNL     1      18.472  54.176  42.556  1.00  0.00    -0.318 N 
ATOM      4  C   UNL     1      18.716  51.931  42.126  1.00  0.00     0.051 A 
ATOM      5  C   UNL     1      19.288  53.054  42.716  1.00  0.00     0.053 A 
ATOM      6  C   UNL     1      17.446  52.367  41.548  1.00  0.00     0.252 C 
ATOM      7  C   UNL     1      17.323  53.857  41.855  1.00  0.00     0.296 C 
ATOM      8  C   UNL     1      19.319  50.693  42.142  1.00  0.00     0.014 A 
ATOM      9  C   UNL     1      20.506  52.981  43.358  1.00  0.00     0.027 A 
ATOM     10  C   UNL     1      20.553  50.603  42.788  1.00  0.00     0.001 A 
ATOM     11  C   UNL     1      21.143  51.736  43.389  1.00  0.00     0.002 A 
ATOM     12  H   UNL     1      18.707  55.095  42.914  1.00  0.00     0.170 HD
ENDROOT
TORSDOF 0
ENDMDL
MODEL 12
REMARK VINA RESULT:    -3.507      1.240      2.230
REMARK INTER + INTRA:          -3.507
REMARK INTER:                  -3.507
REMARK INTRA:                   0.000
REMARK UNBOUND:                 0.000
REMARK SMILES O=C1Nc2ccccc2C1=O
REMARK SMILES IDX 11 1 1 2 3 3 9 4 4 5 10 6 2 7 8 8 5 9 7 10 6 11
REMARK H PARENT 3 12
ROOT
ATOM      1  O   UNL     1      21.146  44.476  33.883  1.00  0.00    -0.283 OA
ATOM      2  O   UNL     1      19.226  42.343  34.015  1.00  0.00    -0.265 OA
ATOM      3  N   UNL     1      17.933  44.005  35.101  1.00  0.00    -0.318 N 
ATOM      4  C   UNL     1      19.436  45.742  35.020  1.00  0.00     0.051 A 
ATOM      5  C   UNL     1      18.168  45.342  35.430  1.00  0.00     0.053 A 
ATOM      6  C   UNL     1      20.053  44.580  34.383  1.00  0.00     0.252 C 
ATOM      7  C   UNL     1      19.026  43.453  34.457  1.00  0.00     0.296 C 
ATOM      8  C   UNL     1      19.917  47.016  35.225  1.00  0.00     0.014 A 
ATOM      9  C   UNL     1      17.317  46.214  36.075  1.00  0.00     0.027 A 
ATOM     10  C   UNL     1      19.066  47.911  35.877  1.00  0.00     0.001 A 
ATOM     11  C   UNL     1      17.779  47.515  36.297  1.00  0.00     0.002 A 
ATOM     12  H   UNL     1      17.069  43.519  35.313  1.00  0.00     0.170 HD
ENDROOT
TORSDOF 0
ENDMDL
MODEL 13
REMARK VINA RESULT:    -3.474     10.326     10.867
REMARK INTER + INTRA:          -3.474
REMARK INTER:                  -3.474
REMARK INTRA:                   0.000
REMARK UNBOUND:                 0.000
REMARK SMILES O=C1Nc2ccccc2C1=O
REMARK SMILES IDX 11 1 1 2 3 3 9 4 4 5 10 6 2 7 8 8 5 9 7 10 6 11
REMARK H PARENT 3 12
ROOT
ATOM      1  O   UNL     1      21.249  53.085  43.311  1.00  0.00    -0.283 OA
ATOM      2  O   UNL     1      19.882  51.289  45.088  1.00  0.00    -0.265 OA
ATOM      3  N   UNL     1      18.153  51.531  43.486  1.00  0.00    -0.318 N 
ATOM      4  C   UNL     1      19.205  52.969  42.034  1.00  0.00     0.051 A 
ATOM      5  C   UNL     1      18.041  52.255  42.297  1.00  0.00     0.053 A 
ATOM      6  C   UNL     1      20.126  52.680  43.132  1.00  0.00     0.252 C 
ATOM      7  C   UNL     1      19.392  51.726  44.070  1.00  0.00     0.296 C 
ATOM      8  C   UNL     1      19.355  53.767  40.921  1.00  0.00     0.014 A 
ATOM      9  C   UNL     1      16.960  52.311  41.443  1.00  0.00     0.027 A 
ATOM     10  C   UNL     1      18.268  53.834  40.047  1.00  0.00     0.001 A 
ATOM     11  C   UNL     1      17.082  53.113  40.304  1.00  0.00     0.002 A 
ATOM     12  H   UNL     1      17.414  50.944  43.857  1.00  0.00     0.170 HD
ENDROOT
TORSDOF 0
ENDMDL
MODEL 14
REMARK VINA RESULT:    -3.474      9.679     10.816
REMARK INTER + INTRA:          -3.474
REMARK INTER:                  -3.474
REMARK INTRA:                   0.000
REMARK UNBOUND:                 0.000
REMARK SMILES O=C1Nc2ccccc2C1=O
REMARK SMILES IDX 11 1 1 2 3 3 9 4 4 5 10 6 2 7 8 8 5 9 7 10 6 11
REMARK H PARENT 3 12
ROOT
ATOM      1  O   UNL     1      22.014  53.021  44.467  1.00  0.00    -0.283 OA
ATOM      2  O   UNL     1      20.279  54.137  42.467  1.00  0.00    -0.265 OA
ATOM      3  N   UNL     1      19.975  51.852  41.916  1.00  0.00    -0.318 N 
ATOM      4  C   UNL     1      21.352  50.913  43.499  1.00  0.00     0.051 A 
ATOM      5  C   UNL     1      20.487  50.662  42.438  1.00  0.00     0.053 A 
ATOM      6  C   UNL     1      21.394  52.364  43.667  1.00  0.00     0.252 C 
ATOM      7  C   UNL     1      20.470  52.948  42.601  1.00  0.00     0.296 C 
ATOM      8  C   UNL     1      21.994  49.908  44.189  1.00  0.00     0.014 A 
ATOM      9  C   UNL     1      20.226  49.376  42.017  1.00  0.00     0.027 A 
ATOM     10  C   UNL     1      21.739  48.599  43.774  1.00  0.00     0.001 A 
ATOM     11  C   UNL     1      20.863  48.335  42.700  1.00  0.00     0.002 A 
ATOM     12  H   UNL     1      19.326  51.890  41.138  1.00  0.00     0.170 HD
ENDROOT
TORSDOF 0
ENDMDL
MODEL 15
REMARK VINA RESULT:    -3.471     10.284     10.829
REMARK INTER + INTRA:          -3.471
REMARK INTER:                  -3.471
REMARK INTRA:                   0.000
REMARK UNBOUND:                 0.000
REMARK SMILES O=C1Nc2ccccc2C1=O
REMARK SMILES IDX 11 1 1 2 3 3 9 4 4 5 10 6 2 7 8 8 5 9 7 10 6 11
REMARK H PARENT 3 12
ROOT
ATOM      1  O   UNL     1      21.281  52.961  43.465  1.00  0.00    -0.283 OA
ATOM      2  O   UNL     1      20.425  54.420  41.143  1.00  0.00    -0.265 OA
ATOM      3  N   UNL     1      18.502  53.058  41.393  1.00  0.00    -0.318 N 
ATOM      4  C   UNL     1      19.143  51.865  43.250  1.00  0.00     0.051 A 
ATOM      5  C   UNL     1      18.140  52.066  42.307  1.00  0.00     0.053 A 
ATOM      6  C   UNL     1      20.221  52.794  42.914  1.00  0.00     0.252 C 
ATOM      7  C   UNL     1      19.757  53.564  41.681  1.00  0.00     0.296 C 
ATOM      8  C   UNL     1      19.037  50.939  44.264  1.00  0.00     0.014 A 
ATOM      9  C   UNL     1      16.971  51.337  42.341  1.00  0.00     0.027 A 
ATOM     10  C   UNL     1      17.858  50.192  44.311  1.00  0.00     0.001 A 
ATOM     11  C   UNL     1      16.834  50.389  43.360  1.00  0.00     0.002 A 
ATOM     12  H   UNL     1      17.910  53.356  40.625  1.00  0.00     0.170 HD
ENDROOT
TORSDOF 0
ENDMDL
MODEL 16
REMARK VINA RESULT:    -3.468      8.552      9.630
REMARK INTER + INTRA:          -3.468
REMARK INTER:                  -3.468
REMARK INTRA:                   0.000
REMARK UNBOUND:                 0.000
REMARK SMILES O=C1Nc2ccccc2C1=O
REMARK SMILES IDX 11 1 1 2 3 3 9 4 4 5 10 6 2 7 8 8 5 9 7 10 6 11
REMARK H PARENT 3 12
ROOT
ATOM      1  O   UNL     1      18.709  52.056  43.673  1.00  0.00    -0.283 OA
ATOM      2  O   UNL     1      19.430  49.595  42.378  1.00  0.00    -0.265 OA
ATOM      3  N   UNL     1      18.488  50.683  40.496  1.00  0.00    -0.318 N 
ATOM      4  C   UNL     1      17.892  52.669  41.488  1.00  0.00     0.051 A 
ATOM      5  C   UNL     1      17.904  51.937  40.304  1.00  0.00     0.053 A 
ATOM      6  C   UNL     1      18.512  51.823  42.506  1.00  0.00     0.252 C 
ATOM      7  C   UNL     1      18.892  50.519  41.809  1.00  0.00     0.296 C 
ATOM      8  C   UNL     1      17.370  53.941  41.572  1.00  0.00     0.014 A 
ATOM      9  C   UNL     1      17.385  52.457  39.138  1.00  0.00     0.027 A 
ATOM     10  C   UNL     1      16.839  54.480  40.398  1.00  0.00     0.001 A 
ATOM     11  C   UNL     1      16.847  53.747  39.192  1.00  0.00     0.002 A 
ATOM     12  H   UNL     1      18.594  49.996  39.758  1.00  0.00     0.170 HD
ENDROOT
TORSDOF 0
ENDMDL
MODEL 17
REMARK VINA RESULT:    -3.466      9.984     11.334
REMARK INTER + INTRA:          -3.466
REMARK INTER:                  -3.466
REMARK INTRA:                   0.000
REMARK UNBOUND:                 0.000
REMARK SMILES O=C1Nc2ccccc2C1=O
REMARK SMILES IDX 11 1 1 2 3 3 9 4 4 5 10 6 2 7 8 8 5 9 7 10 6 11
REMARK H PARENT 3 12
ROOT
ATOM      1  O   UNL     1      20.401  54.248  41.228  1.00  0.00    -0.283 OA
ATOM      2  O   UNL     1      18.089  52.904  40.180  1.00  0.00    -0.265 OA
ATOM      3  N   UNL     1      18.111  51.883  42.318  1.00  0.00    -0.318 N 
ATOM      4  C   UNL     1      19.956  52.932  43.200  1.00  0.00     0.051 A 
ATOM      5  C   UNL     1      18.943  52.007  43.433  1.00  0.00     0.053 A 
ATOM      6  C   UNL     1      19.757  53.433  41.842  1.00  0.00     0.252 C 
ATOM      7  C   UNL     1      18.527  52.715  41.294  1.00  0.00     0.296 C 
ATOM      8  C   UNL     1      20.913  53.240  44.141  1.00  0.00     0.014 A 
ATOM      9  C   UNL     1      18.845  51.342  44.636  1.00  0.00     0.027 A 
ATOM     10  C   UNL     1      20.827  52.574  45.366  1.00  0.00     0.001 A 
ATOM     11  C   UNL     1      19.804  51.635  45.612  1.00  0.00     0.002 A 
ATOM     12  H   UNL     1      17.312  51.260  42.282  1.00  0.00     0.170 HD
ENDROOT
TORSDOF 0
ENDMDL
MODEL 18
REMARK VINA RESULT:    -3.418      9.535     10.280
REMARK INTER + INTRA:          -3.418
REMARK INTER:                  -3.418
REMARK INTRA:                   0.000
REMARK UNBOUND:                 0.000
REMARK SMILES O=C1Nc2ccccc2C1=O
REMARK SMILES IDX 11 1 1 2 3 3 9 4 4 5 10 6 2 7 8 8 5 9 7 10 6 11
REMARK H PARENT 3 12
ROOT
ATOM      1  O   UNL     1      17.565  54.196  42.225  1.00  0.00    -0.283 OA
ATOM      2  O   UNL     1      20.381  54.265  41.663  1.00  0.00    -0.265 OA
ATOM      3  N   UNL     1      20.163  51.919  41.916  1.00  0.00    -0.318 N 
ATOM      4  C   UNL     1      17.912  51.814  42.371  1.00  0.00     0.051 A 
ATOM      5  C   UNL     1      19.083  51.081  42.204  1.00  0.00     0.053 A 
ATOM      6  C   UNL     1      18.268  53.217  42.174  1.00  0.00     0.252 C 
ATOM      7  C   UNL     1      19.765  53.244  41.876  1.00  0.00     0.296 C 
ATOM      8  C   UNL     1      16.701  51.226  42.664  1.00  0.00     0.014 A 
ATOM      9  C   UNL     1      19.091  49.708  42.328  1.00  0.00     0.027 A 
ATOM     10  C   UNL     1      16.693  49.835  42.792  1.00  0.00     0.001 A 
ATOM     11  C   UNL     1      17.875  49.083  42.625  1.00  0.00     0.002 A 
ATOM     12  H   UNL     1      21.106  51.584  41.760  1.00  0.00     0.170 HD
ENDROOT
TORSDOF 0
ENDMDL
MODEL 19
REMARK VINA RESULT:    -3.374      8.437      9.507
REMARK INTER + INTRA:          -3.374
REMARK INTER:                  -3.374
REMARK INTRA:                   0.000
REMARK UNBOUND:                 0.000
REMARK SMILES O=C1Nc2ccccc2C1=O
REMARK SMILES IDX 11 1 1 2 3 3 9 4 4 5 10 6 2 7 8 8 5 9 7 10 6 11
REMARK H PARENT 3 12
ROOT
ATOM      1  O   UNL     1      17.181  51.311  38.476  1.00  0.00    -0.283 OA
ATOM      2  O   UNL     1      17.449  54.169  38.361  1.00  0.00    -0.265 OA
ATOM      3  N   UNL     1      18.060  53.882  40.632  1.00  0.00    -0.318 N 
ATOM      4  C   UNL     1      17.859  51.596  40.773  1.00  0.00     0.051 A 
ATOM      5  C   UNL     1      18.177  52.764  41.461  1.00  0.00     0.053 A 
ATOM      6  C   UNL     1      17.517  51.997  39.410  1.00  0.00     0.252 C 
ATOM      7  C   UNL     1      17.663  53.516  39.358  1.00  0.00     0.296 C 
ATOM      8  C   UNL     1      17.894  50.352  41.363  1.00  0.00     0.014 A 
ATOM      9  C   UNL     1      18.547  52.733  42.788  1.00  0.00     0.027 A 
ATOM     10  C   UNL     1      18.268  50.305  42.708  1.00  0.00     0.001 A 
ATOM     11  C   UNL     1      18.592  51.483  43.414  1.00  0.00     0.002 A 
ATOM     12  H   UNL     1      18.247  54.829  40.939  1.00  0.00     0.170 HD
ENDROOT
TORSDOF 0
ENDMDL
