MODEL 1
REMARK VINA RESULT:    -3.764      0.000      0.000
REMARK INTER + INTRA:          -3.764
REMARK INTER:                  -3.764
REMARK INTRA:                   0.000
REMARK UNBOUND:                 0.000
REMARK SMILES O=C1Nc2ccccc2C1=O
REMARK SMILES IDX 11 1 1 2 3 3 9 4 4 5 10 6 2 7 8 8 5 9 7 10 6 11
REMARK H PARENT 3 12
ROOT
ATOM      1  O   UNL     1      19.050  51.345  43.404  1.00  0.00    -0.283 OA
ATOM      2  O   UNL     1      20.851  53.560  43.082  1.00  0.00    -0.265 OA
ATOM      3  N   UNL     1      19.730  53.754  41.004  1.00  0.00    -0.318 N 
ATOM      4  C   UNL     1      18.270  51.991  41.215  1.00  0.00     0.051 A 
ATOM      5  C   UNL     1      18.699  53.032  40.397  1.00  0.00     0.053 A 
ATOM      6  C   UNL     1      19.083  52.054  42.428  1.00  0.00     0.252 C 
ATOM      7  C   UNL     1      20.035  53.233  42.248  1.00  0.00     0.296 C 
ATOM      8  C   UNL     1      17.262  51.126  40.851  1.00  0.00     0.014 A 
ATOM      9  C   UNL     1      18.129  53.252  39.161  1.00  0.00     0.027 A 
ATOM     10  C   UNL     1      16.675  51.336  39.601  1.00  0.00     0.001 A 
ATOM     11  C   UNL     1      17.103  52.389  38.765  1.00  0.00     0.002 A 
ATOM     12  H   UNL     1      20.183  54.552  40.574  1.00  0.00     0.170 HD
ENDROOT
TORSDOF 0
ENDMDL
MODEL 2
REMARK VINA RESULT:    -3.700      2.412      4.358
REMARK INTER + INTRA:          -3.700
REMARK INTER:                  -3.700
REMARK INTRA:                   0.000
REMARK UNBOUND:                 0.000
REMARK SMILES O=C1Nc2ccccc2C1=O
REMARK SMILES IDX 11 1 1 2 3 3 9 4 4 5 10 6 2 7 8 8 5 9 7 10 6 11
REMARK H PARENT 3 12
ROOT
ATOM      1  O   UNL     1      20.396  54.477  42.597  1.00  0.00    -0.283 OA
ATOM      2  O   UNL     1      18.300  53.686  40.798  1.00  0.00    -0.265 OA
ATOM      3  N   UNL     1      18.982  51.518  41.468  1.00  0.00    -0.318 N 
ATOM      4  C   UNL     1      20.669  52.102  42.917  1.00  0.00     0.051 A 
ATOM      5  C   UNL     1      19.965  51.048  42.342  1.00  0.00     0.053 A 
ATOM      6  C   UNL     1      20.093  53.331  42.373  1.00  0.00     0.252 C 
ATOM      7  C   UNL     1      18.982  52.901  41.420  1.00  0.00     0.296 C 
ATOM      8  C   UNL     1      21.694  51.909  43.816  1.00  0.00     0.014 A 
ATOM      9  C   UNL     1      20.265  49.737  42.647  1.00  0.00     0.027 A 
ATOM     10  C   UNL     1      22.009  50.587  44.136  1.00  0.00     0.001 A 
ATOM     11  C   UNL     1      21.302  49.511  43.558  1.00  0.00     0.002 A 
ATOM     12  H   UNL     1      18.360  50.912  40.947  1.00  0.00     0.170 HD
ENDROOT
TORSDOF 0
ENDMDL
MODEL 3
REMARK VINA RESULT:    -3.627      7.467      8.802
REMARK INTER + INTRA:          -3.627
REMARK INTER:                  -3.627
REMARK INTRA:                   0.000
REMARK UNBOUND:                 0.000
REMARK SMILES O=C1Nc2ccccc2C1=O
REMARK SMILES IDX 11 1 1 2 3 3 9 4 4 5 10 6 2 7 8 8 5 9 7 10 6 11
REMARK H PARENT 3 12
ROOT
ATOM      1  O   UNL     1      28.120  50.015  45.548  1.00  0.00    -0.283 OA
ATOM      2  O   UNL     1      26.791  47.497  45.168  1.00  0.00    -0.265 OA
ATOM      3  N   UNL     1      24.911  48.903  44.847  1.00  0.00    -0.318 N 
ATOM      4  C   UNL     1      25.930  50.941  45.144  1.00  0.00     0.051 A 
ATOM      5  C   UNL     1      24.732  50.288  44.871  1.00  0.00     0.053 A 
ATOM      6  C   UNL     1      26.944  49.901  45.304  1.00  0.00     0.252 C 
ATOM      7  C   UNL     1      26.229  48.568  45.100  1.00  0.00     0.296 C 
ATOM      8  C   UNL     1      26.028  52.313  45.225  1.00  0.00     0.014 A 
ATOM      9  C   UNL     1      23.565  50.991  44.667  1.00  0.00     0.027 A 
ATOM     10  C   UNL     1      24.853  53.039  45.020  1.00  0.00     0.001 A 
ATOM     11  C   UNL     1      23.633  52.386  44.742  1.00  0.00     0.002 A 
ATOM     12  H   UNL     1      24.162  48.244  44.666  1.00  0.00     0.170 HD
ENDROOT
TORSDOF 0
ENDMDL
MODEL 4
REMARK VINA RESULT:    -3.583      6.880      7.978
REMARK INTER + INTRA:          -3.583
REMARK INTER:                  -3.583
REMARK INTRA:                   0.000
REMARK UNBOUND:                 0.000
REMARK SMILES O=C1Nc2ccccc2C1=O
REMARK SMILES IDX 11 1 1 2 3 3 9 4 4 5 10 6 2 7 8 8 5 9 7 10 6 11
REMARK H PARENT 3 12
ROOT
ATOM      1  O   UNL     1      22.963  48.181  44.765  1.00  0.00    -0.283 OA
ATOM      2  O   UNL     1      25.582  47.087  44.328  1.00  0.00    -0.265 OA
ATOM      3  N   UNL     1      26.193  49.376  44.356  1.00  0.00    -0.318 N 
ATOM      4  C   UNL     1      24.116  50.299  44.705  1.00  0.00     0.051 A 
ATOM      5  C   UNL     1      25.471  50.560  44.522  1.00  0.00     0.053 A 
ATOM      6  C   UNL     1      23.963  48.846  44.654  1.00  0.00     0.252 C 
ATOM      7  C   UNL     1      25.359  48.274  44.421  1.00  0.00     0.296 C 
ATOM      8  C   UNL     1      23.184  51.296  44.891  1.00  0.00     0.014 A 
ATOM      9  C   UNL     1      25.955  51.851  44.516  1.00  0.00     0.027 A 
ATOM     10  C   UNL     1      23.660  52.609  44.888  1.00  0.00     0.001 A 
ATOM     11  C   UNL     1      25.031  52.885  44.703  1.00  0.00     0.002 A 
ATOM     12  H   UNL     1      27.195  49.347  44.209  1.00  0.00     0.170 HD
ENDROOT
TORSDOF 0
ENDMDL
MODEL 5
REMARK VINA RESULT:    -3.577      7.690      8.649
REMARK INTER + INTRA:          -3.577
REMARK INTER:                  -3.577
REMARK INTRA:                   0.000
REMARK UNBOUND:                 0.000
REMARK SMILES O=C1Nc2ccccc2C1=O
REMARK SMILES IDX 11 1 1 2 3 3 9 4 4 5 10 6 2 7 8 8 5 9 7 10 6 11
REMARK H PARENT 3 12
ROOT
ATOM      1  O   UNL     1      20.138  48.056  35.045  1.00  0.00    -0.283 OA
ATOM      2  O   UNL     1      18.837  48.855  37.478  1.00  0.00    -0.265 OA
ATOM      3  N   UNL     1      18.011  46.636  37.387  1.00  0.00    -0.318 N 
ATOM      4  C   UNL     1      19.031  45.951  35.444  1.00  0.00     0.051 A 
ATOM      5  C   UNL     1      18.189  45.581  36.489  1.00  0.00     0.053 A 
ATOM      6  C   UNL     1      19.419  47.338  35.694  1.00  0.00     0.252 C 
ATOM      7  C   UNL     1      18.724  47.753  36.988  1.00  0.00     0.296 C 
ATOM      8  C   UNL     1      19.369  45.093  34.421  1.00  0.00     0.014 A 
ATOM      9  C   UNL     1      17.641  44.318  36.552  1.00  0.00     0.027 A 
ATOM     10  C   UNL     1      18.821  43.809  34.472  1.00  0.00     0.001 A 
ATOM     11  C   UNL     1      17.967  43.424  35.526  1.00  0.00     0.002 A 
ATOM     12  H   UNL     1      17.434  46.573  38.217  1.00  0.00     0.170 HD
ENDROOT
TORSDOF 0
ENDMDL
MODEL 6
REMARK VINA RESULT:    -3.561      2.383      4.090
REMARK INTER + INTRA:          -3.561
REMARK INTER:                  -3.561
REMARK INTRA:                   0.000
REMARK UNBOUND:                 0.000
REMARK SMILES O=C1Nc2ccccc2C1=O
REMARK SMILES IDX 11 1 1 2 3 3 9 4 4 5 10 6 2 7 8 8 5 9 7 10 6 11
REMARK H PARENT 3 12
ROOT
ATOM      1  O   UNL     1      17.938  51.396  40.924  1.00  0.00    -0.283 OA
ATOM      2  O   UNL     1      17.138  54.101  41.467  1.00  0.00    -0.265 OA
ATOM      3  N   UNL     1      19.024  54.032  42.899  1.00  0.00    -0.318 N 
ATOM      4  C   UNL     1      19.703  51.873  42.497  1.00  0.00     0.051 A 
ATOM      5  C   UNL     1      19.964  53.044  43.202  1.00  0.00     0.053 A 
ATOM      6  C   UNL     1      18.514  52.132  41.687  1.00  0.00     0.252 C 
ATOM      7  C   UNL     1      18.097  53.570  41.981  1.00  0.00     0.296 C 
ATOM      8  C   UNL     1      20.482  50.744  42.616  1.00  0.00     0.014 A 
ATOM      9  C   UNL     1      21.032  53.134  44.069  1.00  0.00     0.027 A 
ATOM     10  C   UNL     1      21.568  50.819  43.491  1.00  0.00     0.001 A 
ATOM     11  C   UNL     1      21.841  52.002  44.210  1.00  0.00     0.002 A 
ATOM     12  H   UNL     1      19.035  54.960  43.306  1.00  0.00     0.170 HD
ENDROOT
TORSDOF 0
ENDMDL
MODEL 7
REMARK VINA RESULT:    -3.547      6.471      8.476
REMARK INTER + INTRA:          -3.547
REMARK INTER:                  -3.547
REMARK INTRA:                   0.000
REMARK UNBOUND:                 0.000
REMARK SMILES O=C1Nc2ccccc2C1=O
REMARK SMILES IDX 11 1 1 2 3 3 9 4 4 5 10 6 2 7 8 8 5 9 7 10 6 11
REMARK H PARENT 3 12
ROOT
ATOM      1  O   UNL     1      25.332  53.196  44.078  1.00  0.00    -0.283 OA
ATOM      2  O   UNL     1      22.520  52.613  44.137  1.00  0.00    -0.265 OA
ATOM      3  N   UNL     1      23.300  50.501  44.876  1.00  0.00    -0.318 N 
ATOM      4  C   UNL     1      25.560  50.921  44.844  1.00  0.00     0.051 A 
ATOM      5  C   UNL     1      24.573  49.977  45.111  1.00  0.00     0.053 A 
ATOM      6  C   UNL     1      24.869  52.133  44.409  1.00  0.00     0.252 C 
ATOM      7  C   UNL     1      23.377  51.814  44.444  1.00  0.00     0.296 C 
ATOM      8  C   UNL     1      26.904  50.656  44.995  1.00  0.00     0.014 A 
ATOM      9  C   UNL     1      24.896  48.709  45.546  1.00  0.00     0.027 A 
ATOM     10  C   UNL     1      27.246  49.376  45.435  1.00  0.00     0.001 A 
ATOM     11  C   UNL     1      26.253  48.412  45.709  1.00  0.00     0.002 A 
ATOM     12  H   UNL     1      22.444  49.975  45.010  1.00  0.00     0.170 HD
ENDROOT
TORSDOF 0
ENDMDL
MODEL 8
REMARK VINA RESULT:    -3.542      2.191      3.685
REMARK INTER + INTRA:          -3.542
REMARK INTER:                  -3.542
REMARK INTRA:                   0.000
REMARK UNBOUND:                 0.000
REMARK SMILES O=C1Nc2ccccc2C1=O
REMARK SMILES IDX 11 1 1 2 3 3 9 4 4 5 10 6 2 7 8 8 5 9 7 10 6 11
REMARK H PARENT 3 12
ROOT
ATOM      1  O   UNL     1      16.770  50.788  40.587  1.00  0.00    -0.283 OA
ATOM      2  O   UNL     1      17.054  52.773  38.530  1.00  0.00    -0.265 OA
ATOM      3  N   UNL     1      18.634  53.663  40.054  1.00  0.00    -0.318 N 
ATOM      4  C   UNL     1      18.441  52.100  41.728  1.00  0.00     0.051 A 
ATOM      5  C   UNL     1      19.081  53.265  41.316  1.00  0.00     0.053 A 
ATOM      6  C   UNL     1      17.523  51.728  40.654  1.00  0.00     0.252 C 
ATOM      7  C   UNL     1      17.681  52.787  39.566  1.00  0.00     0.296 C 
ATOM      8  C   UNL     1      18.701  51.497  42.939  1.00  0.00     0.014 A 
ATOM      9  C   UNL     1      20.021  53.884  42.112  1.00  0.00     0.027 A 
ATOM     10  C   UNL     1      19.651  52.113  43.756  1.00  0.00     0.001 A 
ATOM     11  C   UNL     1      20.306  53.294  43.348  1.00  0.00     0.002 A 
ATOM     12  H   UNL     1      18.975  54.488  39.574  1.00  0.00     0.170 HD
ENDROOT
TORSDOF 0
ENDMDL
MODEL 9
REMARK VINA RESULT:    -3.523      2.771      4.310
REMARK INTER + INTRA:          -3.523
REMARK INTER:                  -3.523
REMARK INTRA:                   0.000
REMARK UNBOUND:                 0.000
REMARK SMILES O=C1Nc2ccccc2C1=O
REMARK SMILES IDX 11 1 1 2 3 3 9 4 4 5 10 6 2 7 8 8 5 9 7 10 6 11
REMARK H PARENT 3 12
ROOT
ATOM      1  O   UNL     1      17.682  54.005  38.422  1.00  0.00    -0.283 OA
ATOM      2  O   UNL     1      16.676  51.354  37.959  1.00  0.00    -0.265 OA
ATOM      3  N   UNL     1      17.652  50.960  40.082  1.00  0.00    -0.318 N 
ATOM      4  C   UNL     1      18.476  53.066  40.497  1.00  0.00     0.051 A 
ATOM      5  C   UNL     1      18.349  51.768  40.983  1.00  0.00     0.053 A 
ATOM      6  C   UNL     1      17.813  53.088  39.194  1.00  0.00     0.252 C 
ATOM      7  C   UNL     1      17.282  51.676  38.958  1.00  0.00     0.296 C 
ATOM      8  C   UNL     1      19.123  54.062  41.194  1.00  0.00     0.014 A 
ATOM      9  C   UNL     1      18.874  51.409  42.206  1.00  0.00     0.027 A 
ATOM     10  C   UNL     1      19.661  53.713  42.434  1.00  0.00     0.001 A 
ATOM     11  C   UNL     1      19.537  52.400  42.937  1.00  0.00     0.002 A 
ATOM     12  H   UNL     1      17.452  49.980  40.247  1.00  0.00     0.170 HD
ENDROOT
TORSDOF 0
ENDMDL
MODEL 10
REMARK VINA RESULT:    -3.460      3.193      4.503
REMARK INTER + INTRA:          -3.460
REMARK INTER:                  -3.460
REMARK INTRA:                   0.000
REMARK UNBOUND:                 0.000
REMARK SMILES O=C1Nc2ccccc2C1=O
REMARK SMILES IDX 11 1 1 2 3 3 9 4 4 5 10 6 2 7 8 8 5 9 7 10 6 11
REMARK H PARENT 3 12
ROOT
ATOM      1  O   UNL     1      21.993  52.943  44.370  1.00  0.00    -0.283 OA
ATOM      2  O   UNL     1      20.208  53.940  42.353  1.00  0.00    -0.265 OA
ATOM      3  N   UNL     1      19.947  51.629  41.897  1.00  0.00    -0.318 N 
ATOM      4  C   UNL     1      21.367  50.784  43.495  1.00  0.00     0.051 A 
ATOM      5  C   UNL     1      20.493  50.472  42.458  1.00  0.00     0.053 A 
ATOM      6  C   UNL     1      21.378  52.241  43.606  1.00  0.00     0.252 C 
ATOM      7  C   UNL     1      20.427  52.762  42.531  1.00  0.00     0.296 C 
ATOM      8  C   UNL     1      22.039  49.822  44.216  1.00  0.00     0.014 A 
ATOM      9  C   UNL     1      20.255  49.165  42.092  1.00  0.00     0.027 A 
ATOM     10  C   UNL     1      21.809  48.492  43.857  1.00  0.00     0.001 A 
ATOM     11  C   UNL     1      20.925  48.166  42.806  1.00  0.00     0.002 A 
ATOM     12  H   UNL     1      19.288  51.621  41.128  1.00  0.00     0.170 HD
ENDROOT
TORSDOF 0
ENDMDL
MODEL 11
REMARK VINA RESULT:    -3.431      2.335      3.484
REMARK INTER + INTRA:          -3.431
REMARK INTER:                  -3.431
REMARK INTRA:                   0.000
REMARK UNBOUND:                 0.000
REMARK SMILES O=C1Nc2ccccc2C1=O
REMARK SMILES IDX 11 1 1 2 3 3 9 4 4 5 10 6 2 7 8 8 5 9 7 10 6 11
REMARK H PARENT 3 12
ROOT
ATOM      1  O   UNL     1      22.449  52.600  44.090  1.00  0.00    -0.283 OA
ATOM      2  O   UNL     1      22.334  49.733  44.226  1.00  0.00    -0.265 OA
ATOM      3  N   UNL     1      20.386  50.070  42.919  1.00  0.00    -0.318 N 
ATOM      4  C   UNL     1      20.435  52.364  42.783  1.00  0.00     0.051 A 
ATOM      5  C   UNL     1      19.752  51.209  42.417  1.00  0.00     0.053 A 
ATOM      6  C   UNL     1      21.588  51.933  43.572  1.00  0.00     0.252 C 
ATOM      7  C   UNL     1      21.518  50.410  43.639  1.00  0.00     0.296 C 
ATOM      8  C   UNL     1      20.017  53.624  42.416  1.00  0.00     0.014 A 
ATOM      9  C   UNL     1      18.602  51.268  41.658  1.00  0.00     0.027 A 
ATOM     10  C   UNL     1      18.854  53.701  41.647  1.00  0.00     0.001 A 
ATOM     11  C   UNL     1      18.154  52.535  41.270  1.00  0.00     0.002 A 
ATOM     12  H   UNL     1      20.048  49.127  42.766  1.00  0.00     0.170 HD
ENDROOT
TORSDOF 0
ENDMDL
MODEL 12
REMARK VINA RESULT:    -3.424      2.452      3.238
REMARK INTER + INTRA:          -3.424
REMARK INTER:                  -3.424
REMARK INTRA:                   0.000
REMARK UNBOUND:                 0.000
REMARK SMILES O=C1Nc2ccccc2C1=O
REMARK SMILES IDX 11 1 1 2 3 3 9 4 4 5 10 6 2 7 8 8 5 9 7 10 6 11
REMARK H PARENT 3 12
ROOT
ATOM      1  O   UNL     1      20.432  54.195  42.369  1.00  0.00    -0.283 OA
ATOM      2  O   UNL     1      22.227  52.619  43.965  1.00  0.00    -0.265 OA
ATOM      3  N   UNL     1      20.362  51.160  44.046  1.00  0.00    -0.318 N 
ATOM      4  C   UNL     1      18.890  52.386  42.775  1.00  0.00     0.051 A 
ATOM      5  C   UNL     1      19.076  51.215  43.505  1.00  0.00     0.053 A 
ATOM      6  C   UNL     1      20.146  53.129  42.855  1.00  0.00     0.252 C 
ATOM      7  C   UNL     1      21.093  52.284  43.704  1.00  0.00     0.296 C 
ATOM      8  C   UNL     1      17.706  52.686  42.138  1.00  0.00     0.014 A 
ATOM      9  C   UNL     1      18.067  50.284  43.630  1.00  0.00     0.027 A 
ATOM     10  C   UNL     1      16.675  51.751  42.256  1.00  0.00     0.001 A 
ATOM     11  C   UNL     1      16.853  50.561  42.994  1.00  0.00     0.002 A 
ATOM     12  H   UNL     1      20.699  50.390  44.612  1.00  0.00     0.170 HD
ENDROOT
TORSDOF 0
ENDMDL
MODEL 13
REMARK VINA RESULT:    -3.404      2.170      3.246
REMARK INTER + INTRA:          -3.404
REMARK INTER:                  -3.404
REMARK INTRA:                   0.000
REMARK UNBOUND:                 0.000
REMARK SMILES O=C1Nc2ccccc2C1=O
REMARK SMILES IDX 11 1 1 2 3 3 9 4 4 5 10 6 2 7 8 8 5 9 7 10 6 11
REMARK H PARENT 3 12
ROOT
ATOM      1  O   UNL     1      21.333  53.100  43.597  1.00  0.00    -0.283 OA
ATOM      2  O   UNL     1      20.462  54.359  41.166  1.00  0.00    -0.265 OA
ATOM      3  N   UNL     1      18.642  52.863  41.421  1.00  0.00    -0.318 N 
ATOM      4  C   UNL     1      19.298  51.826  43.365  1.00  0.00     0.051 A 
ATOM      5  C   UNL     1      18.321  51.896  42.376  1.00  0.00     0.053 A 
ATOM      6  C   UNL     1      20.312  52.819  43.018  1.00  0.00     0.252 C 
ATOM      7  C   UNL     1      19.841  53.483  41.727  1.00  0.00     0.296 C 
ATOM      8  C   UNL     1      19.222  50.950  44.426  1.00  0.00     0.014 A 
ATOM      9  C   UNL     1      17.212  51.078  42.408  1.00  0.00     0.027 A 
ATOM     10  C   UNL     1      18.104  50.115  44.471  1.00  0.00     0.001 A 
ATOM     11  C   UNL     1      17.108  50.178  43.474  1.00  0.00     0.002 A 
ATOM     12  H   UNL     1      18.061  53.071  40.617  1.00  0.00     0.170 HD
ENDROOT
TORSDOF 0
ENDMDL
MODEL 14
REMARK VINA RESULT:    -3.395      2.300      4.481
REMARK INTER + INTRA:          -3.395
REMARK INTER:                  -3.395
REMARK INTRA:                   0.000
REMARK UNBOUND:                 0.000
REMARK SMILES O=C1Nc2ccccc2C1=O
REMARK SMILES IDX 11 1 1 2 3 3 9 4 4 5 10 6 2 7 8 8 5 9 7 10 6 11
REMARK H PARENT 3 12
ROOT
ATOM      1  O   UNL     1      20.452  54.414  41.351  1.00  0.00    -0.283 OA
ATOM      2  O   UNL     1      18.187  53.232  40.039  1.00  0.00    -0.265 OA
ATOM      3  N   UNL     1      18.048  52.020  42.070  1.00  0.00    -0.318 N 
ATOM      4  C   UNL     1      19.853  52.936  43.160  1.00  0.00     0.051 A 
ATOM      5  C   UNL     1      18.807  52.021  43.242  1.00  0.00     0.053 A 
ATOM      6  C   UNL     1      19.753  53.564  41.844  1.00  0.00     0.252 C 
ATOM      7  C   UNL     1      18.547  52.930  41.155  1.00  0.00     0.296 C 
ATOM      8  C   UNL     1      20.752  53.133  44.185  1.00  0.00     0.014 A 
ATOM      9  C   UNL     1      18.618  51.251  44.370  1.00  0.00     0.027 A 
ATOM     10  C   UNL     1      20.572  52.360  45.335  1.00  0.00     0.001 A 
ATOM     11  C   UNL     1      19.516  51.430  45.428  1.00  0.00     0.002 A 
ATOM     12  H   UNL     1      17.241  51.424  41.925  1.00  0.00     0.170 HD
ENDROOT
TORSDOF 0
ENDMDL
MODEL 15
REMARK VINA RESULT:    -3.383      8.344      9.442
REMARK INTER + INTRA:          -3.383
REMARK INTER:                  -3.383
REMARK INTRA:                   0.000
REMARK UNBOUND:                 0.000
REMARK SMILES O=C1Nc2ccccc2C1=O
REMARK SMILES IDX 11 1 1 2 3 3 9 4 4 5 10 6 2 7 8 8 5 9 7 10 6 11
REMARK H PARENT 3 12
ROOT
ATOM      1  O   UNL     1      20.880  45.099  34.360  1.00  0.00    -0.283 OA
ATOM      2  O   UNL     1      19.030  42.904  34.265  1.00  0.00    -0.265 OA
ATOM      3  N   UNL     1      17.594  44.487  35.287  1.00  0.00    -0.318 N 
ATOM      4  C   UNL     1      19.039  46.273  35.386  1.00  0.00     0.051 A 
ATOM      5  C   UNL     1      17.755  45.819  35.675  1.00  0.00     0.053 A 
ATOM      6  C   UNL     1      19.746  45.152  34.768  1.00  0.00     0.252 C 
ATOM      7  C   UNL     1      18.756  43.992  34.722  1.00  0.00     0.296 C 
ATOM      8  C   UNL     1      19.457  47.554  35.669  1.00  0.00     0.014 A 
ATOM      9  C   UNL     1      16.824  46.643  36.271  1.00  0.00     0.027 A 
ATOM     10  C   UNL     1      18.525  48.400  36.274  1.00  0.00     0.001 A 
ATOM     11  C   UNL     1      17.221  47.950  36.571  1.00  0.00     0.002 A 
ATOM     12  H   UNL     1      16.733  43.968  35.410  1.00  0.00     0.170 HD
ENDROOT
TORSDOF 0
ENDMDL
MODEL 16
REMARK VINA RESULT:    -3.373      2.377      3.121
REMARK INTER + INTRA:          -3.373
REMARK INTER:                  -3.373
REMARK INTRA:                   0.000
REMARK UNBOUND:                 0.000
REMARK SMILES O=C1Nc2ccccc2C1=O
REMARK SMILES IDX 11 1 1 2 3 3 9 4 4 5 10 6 2 7 8 8 5 9 7 10 6 11
REMARK H PARENT 3 12
ROOT
ATOM      1  O   UNL     1      17.575  54.109  42.095  1.00  0.00    -0.283 OA
ATOM      2  O   UNL     1      20.383  54.227  41.497  1.00  0.00    -0.265 OA
ATOM      3  N   UNL     1      20.262  51.917  42.013  1.00  0.00    -0.318 N 
ATOM      4  C   UNL     1      18.021  51.774  42.502  1.00  0.00     0.051 A 
ATOM      5  C   UNL     1      19.220  51.074  42.405  1.00  0.00     0.053 A 
ATOM      6  C   UNL     1      18.318  53.160  42.146  1.00  0.00     0.252 C 
ATOM      7  C   UNL     1      19.810  53.212  41.830  1.00  0.00     0.296 C 
ATOM      8  C   UNL     1      16.837  51.174  42.872  1.00  0.00     0.014 A 
ATOM      9  C   UNL     1      19.285  49.725  42.681  1.00  0.00     0.027 A 
ATOM     10  C   UNL     1      16.887  49.807  43.154  1.00  0.00     0.001 A 
ATOM     11  C   UNL     1      18.098  49.089  43.059  1.00  0.00     0.002 A 
ATOM     12  H   UNL     1      21.218  51.605  41.885  1.00  0.00     0.170 HD
ENDROOT
TORSDOF 0
ENDMDL
MODEL 17
REMARK VINA RESULT:    -3.338      3.068      4.123
REMARK INTER + INTRA:          -3.338
REMARK INTER:                  -3.338
REMARK INTRA:                   0.000
REMARK UNBOUND:                 0.000
REMARK SMILES O=C1Nc2ccccc2C1=O
REMARK SMILES IDX 11 1 1 2 3 3 9 4 4 5 10 6 2 7 8 8 5 9 7 10 6 11
REMARK H PARENT 3 12
ROOT
ATOM      1  O   UNL     1      16.960  50.544  37.465  1.00  0.00    -0.283 OA
ATOM      2  O   UNL     1      18.123  48.459  39.063  1.00  0.00    -0.265 OA
ATOM      3  N   UNL     1      18.401  50.236  40.605  1.00  0.00    -0.318 N 
ATOM      4  C   UNL     1      17.480  51.938  39.364  1.00  0.00     0.051 A 
ATOM      5  C   UNL     1      18.082  51.596  40.571  1.00  0.00     0.053 A 
ATOM      6  C   UNL     1      17.407  50.711  38.573  1.00  0.00     0.252 C 
ATOM      7  C   UNL     1      18.026  49.609  39.429  1.00  0.00     0.296 C 
ATOM      8  C   UNL     1      17.068  53.220  39.075  1.00  0.00     0.014 A 
ATOM      9  C   UNL     1      18.303  52.538  41.552  1.00  0.00     0.027 A 
ATOM     10  C   UNL     1      17.285  54.186  40.060  1.00  0.00     0.001 A 
ATOM     11  C   UNL     1      17.895  53.850  41.286  1.00  0.00     0.002 A 
ATOM     12  H   UNL     1      18.847  49.785  41.395  1.00  0.00     0.170 HD
ENDROOT
TORSDOF 0
ENDMDL
MODEL 18
REMARK VINA RESULT:    -3.320      1.912      2.692
REMARK INTER + INTRA:          -3.320
REMARK INTER:                  -3.320
REMARK INTRA:                   0.000
REMARK UNBOUND:                 0.000
REMARK SMILES O=C1Nc2ccccc2C1=O
REMARK SMILES IDX 11 1 1 2 3 3 9 4 4 5 10 6 2 7 8 8 5 9 7 10 6 11
REMARK H PARENT 3 12
ROOT
ATOM      1  O   UNL     1      18.545  51.164  43.343  1.00  0.00    -0.283 OA
ATOM      2  O   UNL     1      19.013  48.941  41.585  1.00  0.00    -0.265 OA
ATOM      3  N   UNL     1      18.228  50.475  39.959  1.00  0.00    -0.318 N 
ATOM      4  C   UNL     1      17.837  52.281  41.326  1.00  0.00     0.051 A 
ATOM      5  C   UNL     1      17.790  51.799  40.021  1.00  0.00     0.053 A 
ATOM      6  C   UNL     1      18.343  51.188  42.154  1.00  0.00     0.252 C 
ATOM      7  C   UNL     1      18.589  50.012  41.212  1.00  0.00     0.296 C 
ATOM      8  C   UNL     1      17.457  53.562  41.660  1.00  0.00     0.014 A 
ATOM      9  C   UNL     1      17.351  52.592  38.982  1.00  0.00     0.027 A 
ATOM     10  C   UNL     1      17.010  54.377  40.618  1.00  0.00     0.001 A 
ATOM     11  C   UNL     1      16.958  53.898  39.292  1.00  0.00     0.002 A 
ATOM     12  H   UNL     1      18.271  49.938  39.100  1.00  0.00     0.170 HD
ENDROOT
TORSDOF 0
ENDMDL
MODEL 19
REMARK VINA RESULT:    -3.284      1.731      1.973
REMARK INTER + INTRA:          -3.284
REMARK INTER:                  -3.284
REMARK INTRA:                   0.000
REMARK UNBOUND:                 0.000
REMARK SMILES O=C1Nc2ccccc2C1=O
REMARK SMILES IDX 11 1 1 2 3 3 9 4 4 5 10 6 2 7 8 8 5 9 7 10 6 11
REMARK H PARENT 3 12
ROOT
ATOM      1  O   UNL     1      20.656  50.423  42.424  1.00  0.00    -0.283 OA
ATOM      2  O   UNL     1      21.912  52.591  43.830  1.00  0.00    -0.265 OA
ATOM      3  N   UNL     1      19.932  53.726  43.195  1.00  0.00    -0.318 N 
ATOM      4  C   UNL     1      18.888  52.022  42.059  1.00  0.00     0.051 A 
ATOM      5  C   UNL     1      18.797  53.347  42.474  1.00  0.00     0.053 A 
ATOM      6  C   UNL     1      20.169  51.519  42.551  1.00  0.00     0.252 C 
ATOM      7  C   UNL     1      20.828  52.677  43.296  1.00  0.00     0.296 C 
ATOM      8  C   UNL     1      17.898  51.402  41.329  1.00  0.00     0.014 A 
ATOM      9  C   UNL     1      17.696  54.119  42.168  1.00  0.00     0.027 A 
ATOM     10  C   UNL     1      16.776  52.171  41.011  1.00  0.00     0.001 A 
ATOM     11  C   UNL     1      16.675  53.515  41.426  1.00  0.00     0.002 A 
ATOM     12  H   UNL     1      20.064  54.652  43.585  1.00  0.00     0.170 HD
ENDROOT
TORSDOF 0
ENDMDL
MODEL 20
REMARK VINA RESULT:    -0.096      1.303      2.195
REMARK INTER + INTRA:          -0.096
REMARK INTER:                  -0.096
REMARK INTRA:                   0.000
REMARK UNBOUND:                 0.000
REMARK SMILES O=C1Nc2ccccc2C1=O
REMARK SMILES IDX 11 1 1 2 3 3 9 4 4 5 10 6 2 7 8 8 5 9 7 10 6 11
REMARK H PARENT 3 12
ROOT
ATOM      1  O   UNL     1      20.424  54.498  41.949  1.00  0.00    -0.283 OA
ATOM      2  O   UNL     1      20.994  51.961  43.169  1.00  0.00    -0.265 OA
ATOM      3  N   UNL     1      19.208  51.254  41.780  1.00  0.00    -0.318 N 
ATOM      4  C   UNL     1      18.714  53.263  40.778  1.00  0.00     0.051 A 
ATOM      5  C   UNL     1      18.386  51.913  40.864  1.00  0.00     0.053 A 
ATOM      6  C   UNL     1      19.825  53.480  41.703  1.00  0.00     0.252 C 
ATOM      7  C   UNL     1      20.121  52.128  42.346  1.00  0.00     0.296 C 
ATOM      8  C   UNL     1      18.053  54.138  39.945  1.00  0.00     0.014 A 
ATOM      9  C   UNL     1      17.365  51.377  40.109  1.00  0.00     0.027 A 
ATOM     10  C   UNL     1      17.016  53.609  39.174  1.00  0.00     0.001 A 
ATOM     11  C   UNL     1      16.675  52.242  39.254  1.00  0.00     0.002 A 
ATOM     12  H   UNL     1      19.133  50.266  41.991  1.00  0.00     0.170 HD
ENDROOT
TORSDOF 0
ENDMDL
