REMARK SMILES O=C1Nc2ccccc2C1=O
REMARK SMILES IDX 11 1 1 2 3 3 9 4 4 5 10 6 2 7 8 8 5 9 7 10 6 11
REMARK H PARENT 3 12
ROOT
ATOM      1  O   UNL     1      -1.783  -1.879  -0.000  1.00  0.00    -0.283 OA
ATOM      2  O   UNL     1      -3.100   0.674   0.001  1.00  0.00    -0.265 OA
ATOM      3  N   UNL     1      -0.867   1.466  -0.000  1.00  0.00    -0.318 N 
ATOM      4  C   UNL     1       0.232  -0.553  -0.000  1.00  0.00     0.051 A 
ATOM      5  C   UNL     1       0.377   0.831  -0.001  1.00  0.00     0.053 A 
ATOM      6  C   UNL     1      -1.205  -0.820  -0.000  1.00  0.00     0.252 C 
ATOM      7  C   UNL     1      -1.896   0.541  -0.000  1.00  0.00     0.296 C 
ATOM      8  C   UNL     1       1.307  -1.414  -0.000  1.00  0.00     0.014 A 
ATOM      9  C   UNL     1       1.624   1.419  -0.000  1.00  0.00     0.027 A 
ATOM     10  C   UNL     1       2.577  -0.833   0.001  1.00  0.00     0.001 A 
ATOM     11  C   UNL     1       2.735   0.569   0.000  1.00  0.00     0.002 A 
ATOM     12  H   UNL     1      -0.982   2.473   0.000  1.00  0.00     0.170 HD
ENDROOT
TORSDOF 0
